n -t * -s 0  -x 0 -y 1000 -Z 0 -z 30  -v circle -c black
n -t * -s 1  -x 100 -y 1000 -Z 0 -z 30  -v circle -c black
n -t * -s 2  -x 200 -y 1000 -Z 0 -z 30  -v circle -c black
n -t * -s 3  -x 100 -y 900 -Z 0 -z 30  -v circle -c black
n -t * -s 4  -x 300 -y 900 -Z 0 -z 30  -v circle -c black
n -t * -s 5  -x 200 -y 800 -Z 0 -z 30  -v circle -c black
n -t * -s 6  -x 300 -y 800 -Z 0 -z 30  -v circle -c black
n -t * -s 7  -x 400 -y 800 -Z 0 -z 30  -v circle -c black
n -t * -s 8  -x 500 -y 800 -Z 0 -z 30  -v circle -c black
n -t * -s 9  -x 300 -y 700 -Z 0 -z 30  -v circle -c black
n -t * -s 10  -x 400 -y 700 -Z 0 -z 30  -v circle -c black
n -t * -s 11  -x 600 -y 700 -Z 0 -z 30  -v circle -c black
n -t * -s 12  -x 300 -y 600 -Z 0 -z 30  -v circle -c black
n -t * -s 13  -x 700 -y 600 -Z 0 -z 30  -v circle -c black
n -t * -s 14  -x 300 -y 500 -Z 0 -z 30  -v circle -c black
n -t * -s 15  -x 600 -y 500 -Z 0 -z 30  -v circle -c black
n -t * -s 16  -x 200 -y 400 -Z 0 -z 30  -v circle -c black
n -t * -s 17  -x 100 -y 300 -Z 0 -z 30  -v circle -c black
V -t * -v 1.0a5 -a 0
W -t * -x 1000 -y 1000
A -t * -n 1 -p 0 -o 0x7fffffff -c 30 -a 1
A -t * -h 1 -m 1073741823 -s 0
+ -t 0.000000000 -s 0 -d -1 -p AODV -e 44 -c 2 -a 0 -i 0 -k RTR 
- -t 0.000000000 -s 0 -d -1 -p AODV -e 44 -c 2 -a 0 -i 0 -k RTR
h -t 0.000000000 -s 0 -d -1 -p AODV -e 44 -c 2 -a 0 -i 0 -k RTR
+ -t 0.000000000 -s 1 -d -1 -p AODV -e 44 -c 2 -a 0 -i 0 -k RTR 
- -t 0.000000000 -s 1 -d -1 -p AODV -e 44 -c 2 -a 0 -i 0 -k RTR
h -t 0.000000000 -s 1 -d -1 -p AODV -e 44 -c 2 -a 0 -i 0 -k RTR
+ -t 0.000000000 -s 2 -d -1 -p AODV -e 44 -c 2 -a 0 -i 0 -k RTR 
- -t 0.000000000 -s 2 -d -1 -p AODV -e 44 -c 2 -a 0 -i 0 -k RTR
h -t 0.000000000 -s 2 -d -1 -p AODV -e 44 -c 2 -a 0 -i 0 -k RTR
+ -t 0.000000000 -s 3 -d -1 -p AODV -e 44 -c 2 -a 0 -i 0 -k RTR 
- -t 0.000000000 -s 3 -d -1 -p AODV -e 44 -c 2 -a 0 -i 0 -k RTR
h -t 0.000000000 -s 3 -d -1 -p AODV -e 44 -c 2 -a 0 -i 0 -k RTR
+ -t 0.000000000 -s 4 -d -1 -p AODV -e 44 -c 2 -a 0 -i 0 -k RTR 
- -t 0.000000000 -s 4 -d -1 -p AODV -e 44 -c 2 -a 0 -i 0 -k RTR
h -t 0.000000000 -s 4 -d -1 -p AODV -e 44 -c 2 -a 0 -i 0 -k RTR
+ -t 0.000000000 -s 5 -d -1 -p AODV -e 44 -c 2 -a 0 -i 0 -k RTR 
- -t 0.000000000 -s 5 -d -1 -p AODV -e 44 -c 2 -a 0 -i 0 -k RTR
h -t 0.000000000 -s 5 -d -1 -p AODV -e 44 -c 2 -a 0 -i 0 -k RTR
+ -t 0.000000000 -s 6 -d -1 -p AODV -e 44 -c 2 -a 0 -i 0 -k RTR 
- -t 0.000000000 -s 6 -d -1 -p AODV -e 44 -c 2 -a 0 -i 0 -k RTR
h -t 0.000000000 -s 6 -d -1 -p AODV -e 44 -c 2 -a 0 -i 0 -k RTR
+ -t 0.000000000 -s 7 -d -1 -p AODV -e 44 -c 2 -a 0 -i 0 -k RTR 
- -t 0.000000000 -s 7 -d -1 -p AODV -e 44 -c 2 -a 0 -i 0 -k RTR
h -t 0.000000000 -s 7 -d -1 -p AODV -e 44 -c 2 -a 0 -i 0 -k RTR
+ -t 0.000000000 -s 8 -d -1 -p AODV -e 44 -c 2 -a 0 -i 0 -k RTR 
- -t 0.000000000 -s 8 -d -1 -p AODV -e 44 -c 2 -a 0 -i 0 -k RTR
h -t 0.000000000 -s 8 -d -1 -p AODV -e 44 -c 2 -a 0 -i 0 -k RTR
+ -t 0.000000000 -s 9 -d -1 -p AODV -e 44 -c 2 -a 0 -i 0 -k RTR 
- -t 0.000000000 -s 9 -d -1 -p AODV -e 44 -c 2 -a 0 -i 0 -k RTR
h -t 0.000000000 -s 9 -d -1 -p AODV -e 44 -c 2 -a 0 -i 0 -k RTR
+ -t 0.000000000 -s 10 -d -1 -p AODV -e 44 -c 2 -a 0 -i 0 -k RTR 
- -t 0.000000000 -s 10 -d -1 -p AODV -e 44 -c 2 -a 0 -i 0 -k RTR
h -t 0.000000000 -s 10 -d -1 -p AODV -e 44 -c 2 -a 0 -i 0 -k RTR
+ -t 0.000000000 -s 11 -d -1 -p AODV -e 44 -c 2 -a 0 -i 0 -k RTR 
- -t 0.000000000 -s 11 -d -1 -p AODV -e 44 -c 2 -a 0 -i 0 -k RTR
h -t 0.000000000 -s 11 -d -1 -p AODV -e 44 -c 2 -a 0 -i 0 -k RTR
+ -t 0.000000000 -s 12 -d -1 -p AODV -e 44 -c 2 -a 0 -i 0 -k RTR 
- -t 0.000000000 -s 12 -d -1 -p AODV -e 44 -c 2 -a 0 -i 0 -k RTR
h -t 0.000000000 -s 12 -d -1 -p AODV -e 44 -c 2 -a 0 -i 0 -k RTR
+ -t 0.000000000 -s 13 -d -1 -p AODV -e 44 -c 2 -a 0 -i 0 -k RTR 
- -t 0.000000000 -s 13 -d -1 -p AODV -e 44 -c 2 -a 0 -i 0 -k RTR
h -t 0.000000000 -s 13 -d -1 -p AODV -e 44 -c 2 -a 0 -i 0 -k RTR
+ -t 0.000000000 -s 14 -d -1 -p AODV -e 44 -c 2 -a 0 -i 0 -k RTR 
- -t 0.000000000 -s 14 -d -1 -p AODV -e 44 -c 2 -a 0 -i 0 -k RTR
h -t 0.000000000 -s 14 -d -1 -p AODV -e 44 -c 2 -a 0 -i 0 -k RTR
+ -t 0.000000000 -s 15 -d -1 -p AODV -e 44 -c 2 -a 0 -i 0 -k RTR 
- -t 0.000000000 -s 15 -d -1 -p AODV -e 44 -c 2 -a 0 -i 0 -k RTR
h -t 0.000000000 -s 15 -d -1 -p AODV -e 44 -c 2 -a 0 -i 0 -k RTR
+ -t 0.000000000 -s 16 -d -1 -p AODV -e 44 -c 2 -a 0 -i 0 -k RTR 
- -t 0.000000000 -s 16 -d -1 -p AODV -e 44 -c 2 -a 0 -i 0 -k RTR
h -t 0.000000000 -s 16 -d -1 -p AODV -e 44 -c 2 -a 0 -i 0 -k RTR
+ -t 0.000000000 -s 17 -d -1 -p AODV -e 44 -c 2 -a 0 -i 0 -k RTR 
- -t 0.000000000 -s 17 -d -1 -p AODV -e 44 -c 2 -a 0 -i 0 -k RTR
h -t 0.000000000 -s 17 -d -1 -p AODV -e 44 -c 2 -a 0 -i 0 -k RTR
r -t 0.000936333 -s 0 -d -1 -p AODV -e 44 -c 2 -a 0 -i 0 -k RTR
r -t 0.000936333 -s 3 -d -1 -p AODV -e 44 -c 2 -a 0 -i 0 -k RTR
r -t 0.000936333 -s 2 -d -1 -p AODV -e 44 -c 2 -a 0 -i 0 -k RTR
r -t 0.000936745 -s 5 -d -1 -p AODV -e 44 -c 2 -a 0 -i 0 -k RTR
r -t 0.000936745 -s 4 -d -1 -p AODV -e 44 -c 2 -a 0 -i 0 -k RTR
r -t 0.000996471 -s 15 -d -1 -p AODV -e 44 -c 2 -a 0 -i 0 -k RTR
r -t 0.000996471 -s 11 -d -1 -p AODV -e 44 -c 2 -a 0 -i 0 -k RTR
r -t 0.002002667 -s 1 -d -1 -p AODV -e 44 -c 2 -a 0 -i 0 -k RTR
r -t 0.002002805 -s 3 -d -1 -p AODV -e 44 -c 2 -a 0 -i 0 -k RTR
r -t 0.002003000 -s 2 -d -1 -p AODV -e 44 -c 2 -a 0 -i 0 -k RTR
r -t 0.002142943 -s 13 -d -1 -p AODV -e 44 -c 2 -a 0 -i 0 -k RTR
r -t 0.002143138 -s 15 -d -1 -p AODV -e 44 -c 2 -a 0 -i 0 -k RTR
r -t 0.003129609 -s 13 -d -1 -p AODV -e 44 -c 2 -a 0 -i 0 -k RTR
r -t 0.003129805 -s 11 -d -1 -p AODV -e 44 -c 2 -a 0 -i 0 -k RTR
r -t 0.003394471 -s 1 -d -1 -p AODV -e 44 -c 2 -a 0 -i 0 -k RTR
r -t 0.003394609 -s 3 -d -1 -p AODV -e 44 -c 2 -a 0 -i 0 -k RTR
r -t 0.003394805 -s 0 -d -1 -p AODV -e 44 -c 2 -a 0 -i 0 -k RTR
r -t 0.004380984 -s 17 -d -1 -p AODV -e 44 -c 2 -a 0 -i 0 -k RTR
r -t 0.004380984 -s 14 -d -1 -p AODV -e 44 -c 2 -a 0 -i 0 -k RTR
r -t 0.004381258 -s 12 -d -1 -p AODV -e 44 -c 2 -a 0 -i 0 -k RTR
r -t 0.005367591 -s 9 -d -1 -p AODV -e 44 -c 2 -a 0 -i 0 -k RTR
r -t 0.005367591 -s 14 -d -1 -p AODV -e 44 -c 2 -a 0 -i 0 -k RTR
r -t 0.005367729 -s 10 -d -1 -p AODV -e 44 -c 2 -a 0 -i 0 -k RTR
r -t 0.005367924 -s 6 -d -1 -p AODV -e 44 -c 2 -a 0 -i 0 -k RTR
r -t 0.005368003 -s 16 -d -1 -p AODV -e 44 -c 2 -a 0 -i 0 -k RTR
r -t 0.005368003 -s 5 -d -1 -p AODV -e 44 -c 2 -a 0 -i 0 -k RTR
r -t 0.005368003 -s 7 -d -1 -p AODV -e 44 -c 2 -a 0 -i 0 -k RTR
r -t 0.006253924 -s 6 -d -1 -p AODV -e 44 -c 2 -a 0 -i 0 -k RTR
r -t 0.006253924 -s 12 -d -1 -p AODV -e 44 -c 2 -a 0 -i 0 -k RTR
r -t 0.006253924 -s 10 -d -1 -p AODV -e 44 -c 2 -a 0 -i 0 -k RTR
r -t 0.006254063 -s 5 -d -1 -p AODV -e 44 -c 2 -a 0 -i 0 -k RTR
r -t 0.006254063 -s 7 -d -1 -p AODV -e 44 -c 2 -a 0 -i 0 -k RTR
r -t 0.006254258 -s 4 -d -1 -p AODV -e 44 -c 2 -a 0 -i 0 -k RTR
r -t 0.006254258 -s 14 -d -1 -p AODV -e 44 -c 2 -a 0 -i 0 -k RTR
r -t 0.006254336 -s 8 -d -1 -p AODV -e 44 -c 2 -a 0 -i 0 -k RTR
r -t 0.007240591 -s 12 -d -1 -p AODV -e 44 -c 2 -a 0 -i 0 -k RTR
r -t 0.007240729 -s 16 -d -1 -p AODV -e 44 -c 2 -a 0 -i 0 -k RTR
r -t 0.007240924 -s 9 -d -1 -p AODV -e 44 -c 2 -a 0 -i 0 -k RTR
r -t 0.007241003 -s 10 -d -1 -p AODV -e 44 -c 2 -a 0 -i 0 -k RTR
r -t 0.008247336 -s 7 -d -1 -p AODV -e 44 -c 2 -a 0 -i 0 -k RTR
r -t 0.008247336 -s 9 -d -1 -p AODV -e 44 -c 2 -a 0 -i 0 -k RTR
r -t 0.008247475 -s 12 -d -1 -p AODV -e 44 -c 2 -a 0 -i 0 -k RTR
r -t 0.008247475 -s 6 -d -1 -p AODV -e 44 -c 2 -a 0 -i 0 -k RTR
r -t 0.008247475 -s 8 -d -1 -p AODV -e 44 -c 2 -a 0 -i 0 -k RTR
r -t 0.008247670 -s 11 -d -1 -p AODV -e 44 -c 2 -a 0 -i 0 -k RTR
r -t 0.008247749 -s 14 -d -1 -p AODV -e 44 -c 2 -a 0 -i 0 -k RTR
r -t 0.008247749 -s 4 -d -1 -p AODV -e 44 -c 2 -a 0 -i 0 -k RTR
r -t 0.008247749 -s 5 -d -1 -p AODV -e 44 -c 2 -a 0 -i 0 -k RTR
r -t 0.009154082 -s 6 -d -1 -p AODV -e 44 -c 2 -a 0 -i 0 -k RTR
r -t 0.009154220 -s 5 -d -1 -p AODV -e 44 -c 2 -a 0 -i 0 -k RTR
r -t 0.009154220 -s 2 -d -1 -p AODV -e 44 -c 2 -a 0 -i 0 -k RTR
r -t 0.009154220 -s 7 -d -1 -p AODV -e 44 -c 2 -a 0 -i 0 -k RTR
r -t 0.009154415 -s 3 -d -1 -p AODV -e 44 -c 2 -a 0 -i 0 -k RTR
r -t 0.009154415 -s 9 -d -1 -p AODV -e 44 -c 2 -a 0 -i 0 -k RTR
r -t 0.009154494 -s 1 -d -1 -p AODV -e 44 -c 2 -a 0 -i 0 -k RTR
r -t 0.009154494 -s 10 -d -1 -p AODV -e 44 -c 2 -a 0 -i 0 -k RTR
r -t 0.009154494 -s 8 -d -1 -p AODV -e 44 -c 2 -a 0 -i 0 -k RTR
r -t 0.010100749 -s 1 -d -1 -p AODV -e 44 -c 2 -a 0 -i 0 -k RTR
r -t 0.010100887 -s 0 -d -1 -p AODV -e 44 -c 2 -a 0 -i 0 -k RTR
r -t 0.010100887 -s 2 -d -1 -p AODV -e 44 -c 2 -a 0 -i 0 -k RTR
r -t 0.010100887 -s 5 -d -1 -p AODV -e 44 -c 2 -a 0 -i 0 -k RTR
r -t 0.010101082 -s 4 -d -1 -p AODV -e 44 -c 2 -a 0 -i 0 -k RTR
r -t 0.010101161 -s 6 -d -1 -p AODV -e 44 -c 2 -a 0 -i 0 -k RTR
r -t 0.011107494 -s 4 -d -1 -p AODV -e 44 -c 2 -a 0 -i 0 -k RTR
r -t 0.011107494 -s 5 -d -1 -p AODV -e 44 -c 2 -a 0 -i 0 -k RTR
r -t 0.011107494 -s 9 -d -1 -p AODV -e 44 -c 2 -a 0 -i 0 -k RTR
r -t 0.011107494 -s 7 -d -1 -p AODV -e 44 -c 2 -a 0 -i 0 -k RTR
r -t 0.011107632 -s 10 -d -1 -p AODV -e 44 -c 2 -a 0 -i 0 -k RTR
r -t 0.011107827 -s 12 -d -1 -p AODV -e 44 -c 2 -a 0 -i 0 -k RTR
r -t 0.011107827 -s 8 -d -1 -p AODV -e 44 -c 2 -a 0 -i 0 -k RTR
r -t 0.011107906 -s 2 -d -1 -p AODV -e 44 -c 2 -a 0 -i 0 -k RTR
r -t 0.011107906 -s 3 -d -1 -p AODV -e 44 -c 2 -a 0 -i 0 -k RTR
r -t 0.012074161 -s 7 -d -1 -p AODV -e 44 -c 2 -a 0 -i 0 -k RTR
r -t 0.012074299 -s 10 -d -1 -p AODV -e 44 -c 2 -a 0 -i 0 -k RTR
r -t 0.012074299 -s 11 -d -1 -p AODV -e 44 -c 2 -a 0 -i 0 -k RTR
r -t 0.012074494 -s 6 -d -1 -p AODV -e 44 -c 2 -a 0 -i 0 -k RTR
r -t 0.012074573 -s 9 -d -1 -p AODV -e 44 -c 2 -a 0 -i 0 -k RTR
r -t 0.012074573 -s 4 -d -1 -p AODV -e 44 -c 2 -a 0 -i 0 -k RTR
r -t 0.013100494 -s 6 -d -1 -p AODV -e 44 -c 2 -a 0 -i 0 -k RTR
r -t 0.013100494 -s 10 -d -1 -p AODV -e 44 -c 2 -a 0 -i 0 -k RTR
r -t 0.013100494 -s 8 -d -1 -p AODV -e 44 -c 2 -a 0 -i 0 -k RTR
r -t 0.013100632 -s 9 -d -1 -p AODV -e 44 -c 2 -a 0 -i 0 -k RTR
r -t 0.013100632 -s 4 -d -1 -p AODV -e 44 -c 2 -a 0 -i 0 -k RTR
r -t 0.013100827 -s 5 -d -1 -p AODV -e 44 -c 2 -a 0 -i 0 -k RTR
r -t 0.013100906 -s 12 -d -1 -p AODV -e 44 -c 2 -a 0 -i 0 -k RTR
r -t 0.013100906 -s 11 -d -1 -p AODV -e 44 -c 2 -a 0 -i 0 -k RTR
r -t 0.014027161 -s 6 -d -1 -p AODV -e 44 -c 2 -a 0 -i 0 -k RTR
r -t 0.014027299 -s 3 -d -1 -p AODV -e 44 -c 2 -a 0 -i 0 -k RTR
r -t 0.014027299 -s 4 -d -1 -p AODV -e 44 -c 2 -a 0 -i 0 -k RTR
r -t 0.014027299 -s 9 -d -1 -p AODV -e 44 -c 2 -a 0 -i 0 -k RTR
r -t 0.014027494 -s 2 -d -1 -p AODV -e 44 -c 2 -a 0 -i 0 -k RTR
r -t 0.014027494 -s 7 -d -1 -p AODV -e 44 -c 2 -a 0 -i 0 -k RTR
r -t 0.014027573 -s 1 -d -1 -p AODV -e 44 -c 2 -a 0 -i 0 -k RTR
r -t 0.014027573 -s 12 -d -1 -p AODV -e 44 -c 2 -a 0 -i 0 -k RTR
r -t 0.014027573 -s 10 -d -1 -p AODV -e 44 -c 2 -a 0 -i 0 -k RTR
+ -t 0.500000000 -s 5 -d -1 -p tcp -e 40 -c 2 -a 0 -i 0 -k AGT 
- -t 0.500000000 -s 5 -d -1 -p tcp -e 40 -c 2 -a 0 -i 0 -k AGT
h -t 0.500000000 -s 5 -d -1 -p tcp -e 40 -c 2 -a 0 -i 0 -k AGT
+ -t 0.500000000 -s 5 -d -1 -p AODV -e 48 -c 2 -a 0 -i 0 -k RTR 
- -t 0.500000000 -s 5 -d -1 -p AODV -e 48 -c 2 -a 0 -i 0 -k RTR
h -t 0.500000000 -s 5 -d -1 -p AODV -e 48 -c 2 -a 0 -i 0 -k RTR
r -t 0.500948333 -s 6 -d -1 -p AODV -e 48 -c 2 -a 0 -i 0 -k RTR
r -t 0.500948471 -s 3 -d -1 -p AODV -e 48 -c 2 -a 0 -i 0 -k RTR
r -t 0.500948471 -s 4 -d -1 -p AODV -e 48 -c 2 -a 0 -i 0 -k RTR
r -t 0.500948471 -s 9 -d -1 -p AODV -e 48 -c 2 -a 0 -i 0 -k RTR
r -t 0.500948667 -s 2 -d -1 -p AODV -e 48 -c 2 -a 0 -i 0 -k RTR
r -t 0.500948667 -s 7 -d -1 -p AODV -e 48 -c 2 -a 0 -i 0 -k RTR
r -t 0.500948745 -s 1 -d -1 -p AODV -e 48 -c 2 -a 0 -i 0 -k RTR
r -t 0.500948745 -s 12 -d -1 -p AODV -e 48 -c 2 -a 0 -i 0 -k RTR
r -t 0.500948745 -s 10 -d -1 -p AODV -e 48 -c 2 -a 0 -i 0 -k RTR
+ -t 0.501450079 -s 10 -d -1 -p AODV -e 48 -c 2 -a 0 -i 0 -k RTR 
- -t 0.501450079 -s 10 -d -1 -p AODV -e 48 -c 2 -a 0 -i 0 -k RTR
h -t 0.501450079 -s 10 -d -1 -p AODV -e 48 -c 2 -a 0 -i 0 -k RTR
+ -t 0.501862315 -s 1 -d -1 -p AODV -e 48 -c 2 -a 0 -i 0 -k RTR 
- -t 0.501862315 -s 1 -d -1 -p AODV -e 48 -c 2 -a 0 -i 0 -k RTR
h -t 0.501862315 -s 1 -d -1 -p AODV -e 48 -c 2 -a 0 -i 0 -k RTR
r -t 0.502518413 -s 7 -d -1 -p AODV -e 48 -c 2 -a 0 -i 0 -k RTR
r -t 0.502518413 -s 9 -d -1 -p AODV -e 48 -c 2 -a 0 -i 0 -k RTR
r -t 0.502518551 -s 12 -d -1 -p AODV -e 48 -c 2 -a 0 -i 0 -k RTR
r -t 0.502518551 -s 6 -d -1 -p AODV -e 48 -c 2 -a 0 -i 0 -k RTR
r -t 0.502518551 -s 8 -d -1 -p AODV -e 48 -c 2 -a 0 -i 0 -k RTR
r -t 0.502518746 -s 11 -d -1 -p AODV -e 48 -c 2 -a 0 -i 0 -k RTR
r -t 0.502518825 -s 14 -d -1 -p AODV -e 48 -c 2 -a 0 -i 0 -k RTR
r -t 0.502518825 -s 4 -d -1 -p AODV -e 48 -c 2 -a 0 -i 0 -k RTR
r -t 0.502518825 -s 5 -d -1 -p AODV -e 48 -c 2 -a 0 -i 0 -k RTR
+ -t 0.502735945 -s 2 -d -1 -p AODV -e 48 -c 2 -a 0 -i 0 -k RTR 
- -t 0.502735945 -s 2 -d -1 -p AODV -e 48 -c 2 -a 0 -i 0 -k RTR
h -t 0.502735945 -s 2 -d -1 -p AODV -e 48 -c 2 -a 0 -i 0 -k RTR
+ -t 0.503015812 -s 4 -d -1 -p AODV -e 48 -c 2 -a 0 -i 0 -k RTR 
- -t 0.503015812 -s 4 -d -1 -p AODV -e 48 -c 2 -a 0 -i 0 -k RTR
h -t 0.503015812 -s 4 -d -1 -p AODV -e 48 -c 2 -a 0 -i 0 -k RTR
+ -t 0.503400748 -s 11 -d -1 -p AODV -e 48 -c 2 -a 0 -i 0 -k RTR 
- -t 0.503400748 -s 11 -d -1 -p AODV -e 48 -c 2 -a 0 -i 0 -k RTR
h -t 0.503400748 -s 11 -d -1 -p AODV -e 48 -c 2 -a 0 -i 0 -k RTR
r -t 0.503841615 -s 1 -d -1 -p AODV -e 48 -c 2 -a 0 -i 0 -k RTR
r -t 0.503841753 -s 3 -d -1 -p AODV -e 48 -c 2 -a 0 -i 0 -k RTR
r -t 0.503841753 -s 4 -d -1 -p AODV -e 48 -c 2 -a 0 -i 0 -k RTR
r -t 0.503841948 -s 0 -d -1 -p AODV -e 48 -c 2 -a 0 -i 0 -k RTR
r -t 0.503841948 -s 5 -d -1 -p AODV -e 48 -c 2 -a 0 -i 0 -k RTR
r -t 0.503842027 -s 6 -d -1 -p AODV -e 48 -c 2 -a 0 -i 0 -k RTR
r -t 0.504879948 -s 0 -d -1 -p AODV -e 48 -c 2 -a 0 -i 0 -k RTR
r -t 0.504879948 -s 3 -d -1 -p AODV -e 48 -c 2 -a 0 -i 0 -k RTR
r -t 0.504879948 -s 2 -d -1 -p AODV -e 48 -c 2 -a 0 -i 0 -k RTR
r -t 0.504880360 -s 5 -d -1 -p AODV -e 48 -c 2 -a 0 -i 0 -k RTR
r -t 0.505705419 -s 13 -d -1 -p AODV -e 48 -c 2 -a 0 -i 0 -k RTR
+ -t 0.505705419 -s 13 -d 11 -p AODV -e 44 -c 2 -a 0 -i 0 -k RTR 
- -t 0.505705419 -s 13 -d 11 -p AODV -e 44 -c 2 -a 0 -i 0 -k RTR
h -t 0.505705419 -s 13 -d 11 -p AODV -e 44 -c 2 -a 0 -i 0 -k RTR
r -t 0.505705615 -s 15 -d -1 -p AODV -e 48 -c 2 -a 0 -i 0 -k RTR
+ -t 0.505865962 -s 12 -d -1 -p AODV -e 48 -c 2 -a 0 -i 0 -k RTR 
- -t 0.505865962 -s 12 -d -1 -p AODV -e 48 -c 2 -a 0 -i 0 -k RTR
h -t 0.505865962 -s 12 -d -1 -p AODV -e 48 -c 2 -a 0 -i 0 -k RTR
+ -t 0.506730751 -s 8 -d -1 -p AODV -e 48 -c 2 -a 0 -i 0 -k RTR 
- -t 0.506730751 -s 8 -d -1 -p AODV -e 48 -c 2 -a 0 -i 0 -k RTR
h -t 0.506730751 -s 8 -d -1 -p AODV -e 48 -c 2 -a 0 -i 0 -k RTR
+ -t 0.507897844 -s 9 -d -1 -p AODV -e 48 -c 2 -a 0 -i 0 -k RTR 
- -t 0.507897844 -s 9 -d -1 -p AODV -e 48 -c 2 -a 0 -i 0 -k RTR
h -t 0.507897844 -s 9 -d -1 -p AODV -e 48 -c 2 -a 0 -i 0 -k RTR
+ -t 0.508675429 -s 3 -d -1 -p AODV -e 48 -c 2 -a 0 -i 0 -k RTR 
- -t 0.508675429 -s 3 -d -1 -p AODV -e 48 -c 2 -a 0 -i 0 -k RTR
h -t 0.508675429 -s 3 -d -1 -p AODV -e 48 -c 2 -a 0 -i 0 -k RTR
r -t 0.509937962 -s 1 -d -1 -p AODV -e 48 -c 2 -a 0 -i 0 -k RTR
r -t 0.509938100 -s 0 -d -1 -p AODV -e 48 -c 2 -a 0 -i 0 -k RTR
r -t 0.509938100 -s 2 -d -1 -p AODV -e 48 -c 2 -a 0 -i 0 -k RTR
r -t 0.509938100 -s 5 -d -1 -p AODV -e 48 -c 2 -a 0 -i 0 -k RTR
r -t 0.509938295 -s 4 -d -1 -p AODV -e 48 -c 2 -a 0 -i 0 -k RTR
r -t 0.509938374 -s 6 -d -1 -p AODV -e 48 -c 2 -a 0 -i 0 -k RTR
+ -t 0.510416495 -s 6 -d -1 -p AODV -e 48 -c 2 -a 0 -i 0 -k RTR 
- -t 0.510416495 -s 6 -d -1 -p AODV -e 48 -c 2 -a 0 -i 0 -k RTR
h -t 0.510416495 -s 6 -d -1 -p AODV -e 48 -c 2 -a 0 -i 0 -k RTR
+ -t 0.510662826 -s 14 -d -1 -p AODV -e 48 -c 2 -a 0 -i 0 -k RTR 
- -t 0.510662826 -s 14 -d -1 -p AODV -e 48 -c 2 -a 0 -i 0 -k RTR
h -t 0.510662826 -s 14 -d -1 -p AODV -e 48 -c 2 -a 0 -i 0 -k RTR
+ -t 0.510708734 -s 7 -d -1 -p AODV -e 48 -c 2 -a 0 -i 0 -k RTR 
- -t 0.510708734 -s 7 -d -1 -p AODV -e 48 -c 2 -a 0 -i 0 -k RTR
h -t 0.510708734 -s 7 -d -1 -p AODV -e 48 -c 2 -a 0 -i 0 -k RTR
+ -t 0.511200353 -s 0 -d -1 -p AODV -e 48 -c 2 -a 0 -i 0 -k RTR 
- -t 0.511200353 -s 0 -d -1 -p AODV -e 48 -c 2 -a 0 -i 0 -k RTR
h -t 0.511200353 -s 0 -d -1 -p AODV -e 48 -c 2 -a 0 -i 0 -k RTR
+ -t 0.511289700 -s 15 -d -1 -p AODV -e 48 -c 2 -a 0 -i 0 -k RTR 
- -t 0.511289700 -s 15 -d -1 -p AODV -e 48 -c 2 -a 0 -i 0 -k RTR
h -t 0.511289700 -s 15 -d -1 -p AODV -e 48 -c 2 -a 0 -i 0 -k RTR
r -t 0.511294305 -s 6 -d -1 -p AODV -e 48 -c 2 -a 0 -i 0 -k RTR
r -t 0.511294443 -s 5 -d -1 -p AODV -e 48 -c 2 -a 0 -i 0 -k RTR
r -t 0.511294443 -s 2 -d -1 -p AODV -e 48 -c 2 -a 0 -i 0 -k RTR
r -t 0.511294443 -s 7 -d -1 -p AODV -e 48 -c 2 -a 0 -i 0 -k RTR
r -t 0.511294638 -s 3 -d -1 -p AODV -e 48 -c 2 -a 0 -i 0 -k RTR
r -t 0.511294638 -s 9 -d -1 -p AODV -e 48 -c 2 -a 0 -i 0 -k RTR
r -t 0.511294717 -s 1 -d -1 -p AODV -e 48 -c 2 -a 0 -i 0 -k RTR
r -t 0.511294717 -s 10 -d -1 -p AODV -e 48 -c 2 -a 0 -i 0 -k RTR
r -t 0.511294717 -s 8 -d -1 -p AODV -e 48 -c 2 -a 0 -i 0 -k RTR
r -t 0.512312776 -s 6 -d -1 -p AODV -e 48 -c 2 -a 0 -i 0 -k RTR
r -t 0.512312776 -s 10 -d -1 -p AODV -e 48 -c 2 -a 0 -i 0 -k RTR
r -t 0.512312776 -s 8 -d -1 -p AODV -e 48 -c 2 -a 0 -i 0 -k RTR
r -t 0.512312914 -s 9 -d -1 -p AODV -e 48 -c 2 -a 0 -i 0 -k RTR
r -t 0.512312914 -s 4 -d -1 -p AODV -e 48 -c 2 -a 0 -i 0 -k RTR
r -t 0.512313110 -s 5 -d -1 -p AODV -e 48 -c 2 -a 0 -i 0 -k RTR
r -t 0.512313188 -s 12 -d -1 -p AODV -e 48 -c 2 -a 0 -i 0 -k RTR
r -t 0.512313188 -s 11 -d -1 -p AODV -e 48 -c 2 -a 0 -i 0 -k RTR
r -t 0.513311110 -s 7 -d -1 -p AODV -e 48 -c 2 -a 0 -i 0 -k RTR
r -t 0.513311248 -s 10 -d -1 -p AODV -e 48 -c 2 -a 0 -i 0 -k RTR
r -t 0.513311248 -s 11 -d -1 -p AODV -e 48 -c 2 -a 0 -i 0 -k RTR
r -t 0.513311443 -s 6 -d -1 -p AODV -e 48 -c 2 -a 0 -i 0 -k RTR
r -t 0.513311522 -s 9 -d -1 -p AODV -e 48 -c 2 -a 0 -i 0 -k RTR
r -t 0.513311522 -s 4 -d -1 -p AODV -e 48 -c 2 -a 0 -i 0 -k RTR
r -t 0.514249855 -s 6 -d -1 -p AODV -e 48 -c 2 -a 0 -i 0 -k RTR
r -t 0.514249855 -s 12 -d -1 -p AODV -e 48 -c 2 -a 0 -i 0 -k RTR
r -t 0.514249855 -s 10 -d -1 -p AODV -e 48 -c 2 -a 0 -i 0 -k RTR
r -t 0.514249993 -s 5 -d -1 -p AODV -e 48 -c 2 -a 0 -i 0 -k RTR
r -t 0.514249993 -s 7 -d -1 -p AODV -e 48 -c 2 -a 0 -i 0 -k RTR
r -t 0.514250188 -s 4 -d -1 -p AODV -e 48 -c 2 -a 0 -i 0 -k RTR
r -t 0.514250188 -s 14 -d -1 -p AODV -e 48 -c 2 -a 0 -i 0 -k RTR
r -t 0.514250267 -s 8 -d -1 -p AODV -e 48 -c 2 -a 0 -i 0 -k RTR
r -t 0.515328188 -s 4 -d -1 -p AODV -e 48 -c 2 -a 0 -i 0 -k RTR
r -t 0.515328188 -s 5 -d -1 -p AODV -e 48 -c 2 -a 0 -i 0 -k RTR
r -t 0.515328188 -s 9 -d -1 -p AODV -e 48 -c 2 -a 0 -i 0 -k RTR
r -t 0.515328188 -s 7 -d -1 -p AODV -e 48 -c 2 -a 0 -i 0 -k RTR
r -t 0.515328326 -s 10 -d -1 -p AODV -e 48 -c 2 -a 0 -i 0 -k RTR
r -t 0.515328522 -s 12 -d -1 -p AODV -e 48 -c 2 -a 0 -i 0 -k RTR
r -t 0.515328522 -s 8 -d -1 -p AODV -e 48 -c 2 -a 0 -i 0 -k RTR
r -t 0.515328600 -s 2 -d -1 -p AODV -e 48 -c 2 -a 0 -i 0 -k RTR
r -t 0.515328600 -s 3 -d -1 -p AODV -e 48 -c 2 -a 0 -i 0 -k RTR
r -t 0.516306855 -s 9 -d -1 -p AODV -e 48 -c 2 -a 0 -i 0 -k RTR
r -t 0.516306855 -s 14 -d -1 -p AODV -e 48 -c 2 -a 0 -i 0 -k RTR
r -t 0.516306993 -s 10 -d -1 -p AODV -e 48 -c 2 -a 0 -i 0 -k RTR
r -t 0.516307188 -s 6 -d -1 -p AODV -e 48 -c 2 -a 0 -i 0 -k RTR
r -t 0.516307267 -s 16 -d -1 -p AODV -e 48 -c 2 -a 0 -i 0 -k RTR
r -t 0.516307267 -s 5 -d -1 -p AODV -e 48 -c 2 -a 0 -i 0 -k RTR
r -t 0.516307267 -s 7 -d -1 -p AODV -e 48 -c 2 -a 0 -i 0 -k RTR
r -t 0.517425188 -s 12 -d -1 -p AODV -e 48 -c 2 -a 0 -i 0 -k RTR
r -t 0.517425326 -s 16 -d -1 -p AODV -e 48 -c 2 -a 0 -i 0 -k RTR
r -t 0.517425522 -s 9 -d -1 -p AODV -e 48 -c 2 -a 0 -i 0 -k RTR
r -t 0.517425600 -s 10 -d -1 -p AODV -e 48 -c 2 -a 0 -i 0 -k RTR
r -t 0.518688326 -s 13 -d -1 -p AODV -e 48 -c 2 -a 0 -i 0 -k RTR
r -t 0.518688522 -s 11 -d -1 -p AODV -e 48 -c 2 -a 0 -i 0 -k RTR
+ -t 0.520891741 -s 11 -d 10 -p AODV -e 44 -c 2 -a 0 -i 0 -k RTR 
- -t 0.520891741 -s 11 -d 10 -p AODV -e 44 -c 2 -a 0 -i 0 -k RTR
h -t 0.520891741 -s 11 -d 10 -p AODV -e 44 -c 2 -a 0 -i 0 -k RTR
+ -t 0.523859622 -s 16 -d -1 -p AODV -e 48 -c 2 -a 0 -i 0 -k RTR 
- -t 0.523859622 -s 16 -d -1 -p AODV -e 48 -c 2 -a 0 -i 0 -k RTR
h -t 0.523859622 -s 16 -d -1 -p AODV -e 48 -c 2 -a 0 -i 0 -k RTR
+ -t 0.526263407 -s 10 -d 5 -p AODV -e 44 -c 2 -a 0 -i 0 -k RTR 
- -t 0.526263407 -s 10 -d 5 -p AODV -e 44 -c 2 -a 0 -i 0 -k RTR
h -t 0.526263407 -s 10 -d 5 -p AODV -e 44 -c 2 -a 0 -i 0 -k RTR
+ -t 0.530875625 -s 5 -d 10 -p tcp -e 40 -c 2 -a 0 -i 0 -k RTR 
- -t 0.530875625 -s 5 -d 10 -p tcp -e 40 -c 2 -a 0 -i 0 -k RTR
h -t 0.530875625 -s 5 -d 10 -p tcp -e 40 -c 2 -a 0 -i 0 -k RTR
+ -t 0.533081861 -s 10 -d 11 -p tcp -e 40 -c 2 -a 0 -i 0 -k RTR 
- -t 0.533081861 -s 10 -d 11 -p tcp -e 40 -c 2 -a 0 -i 0 -k RTR
h -t 0.533081861 -s 10 -d 11 -p tcp -e 40 -c 2 -a 0 -i 0 -k RTR
+ -t 0.534967861 -s 11 -d 13 -p tcp -e 40 -c 2 -a 0 -i 0 -k RTR 
- -t 0.534967861 -s 11 -d 13 -p tcp -e 40 -c 2 -a 0 -i 0 -k RTR
h -t 0.534967861 -s 11 -d 13 -p tcp -e 40 -c 2 -a 0 -i 0 -k RTR
r -t 0.537273275 -s 13 -d 13 -p tcp -e 40 -c 2 -a 0 -i 0 -k AGT
+ -t 0.537273275 -s 13 -d -1 -p ack -e 40 -c 2 -a 0 -i 1 -k AGT 
- -t 0.537273275 -s 13 -d -1 -p ack -e 40 -c 2 -a 0 -i 1 -k AGT
h -t 0.537273275 -s 13 -d -1 -p ack -e 40 -c 2 -a 0 -i 1 -k AGT
+ -t 0.537273275 -s 13 -d 11 -p ack -e 40 -c 2 -a 0 -i 1 -k RTR 
- -t 0.537273275 -s 13 -d 11 -p ack -e 40 -c 2 -a 0 -i 1 -k RTR
h -t 0.537273275 -s 13 -d 11 -p ack -e 40 -c 2 -a 0 -i 1 -k RTR
+ -t 0.539278689 -s 11 -d 10 -p ack -e 40 -c 2 -a 0 -i 1 -k RTR 
- -t 0.539278689 -s 11 -d 10 -p ack -e 40 -c 2 -a 0 -i 1 -k RTR
h -t 0.539278689 -s 11 -d 10 -p ack -e 40 -c 2 -a 0 -i 1 -k RTR
+ -t 0.541484689 -s 10 -d 5 -p ack -e 40 -c 2 -a 0 -i 1 -k RTR 
- -t 0.541484689 -s 10 -d 5 -p ack -e 40 -c 2 -a 0 -i 1 -k RTR
h -t 0.541484689 -s 10 -d 5 -p ack -e 40 -c 2 -a 0 -i 1 -k RTR
r -t 0.543450925 -s 5 -d 5 -p ack -e 40 -c 2 -a 0 -i 1 -k AGT
+ -t 0.543450925 -s 5 -d -1 -p tcp -e 1040 -c 2 -a 0 -i 2 -k AGT 
- -t 0.543450925 -s 5 -d -1 -p tcp -e 1040 -c 2 -a 0 -i 2 -k AGT
h -t 0.543450925 -s 5 -d -1 -p tcp -e 1040 -c 2 -a 0 -i 2 -k AGT
+ -t 0.543450925 -s 5 -d -1 -p tcp -e 1040 -c 2 -a 0 -i 3 -k AGT 
- -t 0.543450925 -s 5 -d -1 -p tcp -e 1040 -c 2 -a 0 -i 3 -k AGT
h -t 0.543450925 -s 5 -d -1 -p tcp -e 1040 -c 2 -a 0 -i 3 -k AGT
+ -t 0.543450925 -s 5 -d 10 -p tcp -e 1040 -c 2 -a 0 -i 2 -k RTR 
- -t 0.543450925 -s 5 -d 10 -p tcp -e 1040 -c 2 -a 0 -i 2 -k RTR
h -t 0.543450925 -s 5 -d 10 -p tcp -e 1040 -c 2 -a 0 -i 2 -k RTR
+ -t 0.543450925 -s 5 -d 10 -p tcp -e 1040 -c 2 -a 0 -i 3 -k RTR 
- -t 0.543450925 -s 5 -d 10 -p tcp -e 1040 -c 2 -a 0 -i 3 -k RTR
h -t 0.543450925 -s 5 -d 10 -p tcp -e 1040 -c 2 -a 0 -i 3 -k RTR
+ -t 0.553417161 -s 10 -d 11 -p tcp -e 1040 -c 2 -a 0 -i 2 -k RTR 
- -t 0.553417161 -s 10 -d 11 -p tcp -e 1040 -c 2 -a 0 -i 2 -k RTR
h -t 0.553417161 -s 10 -d 11 -p tcp -e 1040 -c 2 -a 0 -i 2 -k RTR
+ -t 0.563244143 -s 10 -d 11 -p tcp -e 1040 -c 2 -a 0 -i 3 -k RTR 
- -t 0.563244143 -s 10 -d 11 -p tcp -e 1040 -c 2 -a 0 -i 3 -k RTR
h -t 0.563244143 -s 10 -d 11 -p tcp -e 1040 -c 2 -a 0 -i 3 -k RTR
+ -t 0.573170143 -s 11 -d 13 -p tcp -e 1040 -c 2 -a 0 -i 2 -k RTR 
- -t 0.573170143 -s 11 -d 13 -p tcp -e 1040 -c 2 -a 0 -i 2 -k RTR
h -t 0.573170143 -s 11 -d 13 -p tcp -e 1040 -c 2 -a 0 -i 2 -k RTR
r -t 0.583055557 -s 13 -d 13 -p tcp -e 1040 -c 2 -a 0 -i 2 -k AGT
+ -t 0.583055557 -s 13 -d -1 -p ack -e 40 -c 2 -a 0 -i 4 -k AGT 
- -t 0.583055557 -s 13 -d -1 -p ack -e 40 -c 2 -a 0 -i 4 -k AGT
h -t 0.583055557 -s 13 -d -1 -p ack -e 40 -c 2 -a 0 -i 4 -k AGT
+ -t 0.583055557 -s 13 -d 11 -p ack -e 40 -c 2 -a 0 -i 4 -k RTR 
- -t 0.583055557 -s 13 -d 11 -p ack -e 40 -c 2 -a 0 -i 4 -k RTR
h -t 0.583055557 -s 13 -d 11 -p ack -e 40 -c 2 -a 0 -i 4 -k RTR
+ -t 0.585460971 -s 11 -d 10 -p ack -e 40 -c 2 -a 0 -i 4 -k RTR 
- -t 0.585460971 -s 11 -d 10 -p ack -e 40 -c 2 -a 0 -i 4 -k RTR
h -t 0.585460971 -s 11 -d 10 -p ack -e 40 -c 2 -a 0 -i 4 -k RTR
+ -t 0.587506971 -s 10 -d 5 -p ack -e 40 -c 2 -a 0 -i 4 -k RTR 
- -t 0.587506971 -s 10 -d 5 -p ack -e 40 -c 2 -a 0 -i 4 -k RTR
h -t 0.587506971 -s 10 -d 5 -p ack -e 40 -c 2 -a 0 -i 4 -k RTR
+ -t 0.597472971 -s 11 -d 13 -p tcp -e 1040 -c 2 -a 0 -i 3 -k RTR 
- -t 0.597472971 -s 11 -d 13 -p tcp -e 1040 -c 2 -a 0 -i 3 -k RTR
h -t 0.597472971 -s 11 -d 13 -p tcp -e 1040 -c 2 -a 0 -i 3 -k RTR
r -t 0.607538386 -s 13 -d 13 -p tcp -e 1040 -c 2 -a 0 -i 3 -k AGT
+ -t 0.607538386 -s 13 -d -1 -p ack -e 40 -c 2 -a 0 -i 5 -k AGT 
- -t 0.607538386 -s 13 -d -1 -p ack -e 40 -c 2 -a 0 -i 5 -k AGT
h -t 0.607538386 -s 13 -d -1 -p ack -e 40 -c 2 -a 0 -i 5 -k AGT
+ -t 0.607538386 -s 13 -d 11 -p ack -e 40 -c 2 -a 0 -i 5 -k RTR 
- -t 0.607538386 -s 13 -d 11 -p ack -e 40 -c 2 -a 0 -i 5 -k RTR
h -t 0.607538386 -s 13 -d 11 -p ack -e 40 -c 2 -a 0 -i 5 -k RTR
+ -t 0.609503800 -s 11 -d 10 -p ack -e 40 -c 2 -a 0 -i 5 -k RTR 
- -t 0.609503800 -s 11 -d 10 -p ack -e 40 -c 2 -a 0 -i 5 -k RTR
h -t 0.609503800 -s 11 -d 10 -p ack -e 40 -c 2 -a 0 -i 5 -k RTR
+ -t 0.611509800 -s 10 -d 5 -p ack -e 40 -c 2 -a 0 -i 5 -k RTR 
- -t 0.611509800 -s 10 -d 5 -p ack -e 40 -c 2 -a 0 -i 5 -k RTR
h -t 0.611509800 -s 10 -d 5 -p ack -e 40 -c 2 -a 0 -i 5 -k RTR
r -t 0.613496036 -s 5 -d 5 -p ack -e 40 -c 2 -a 0 -i 4 -k AGT
+ -t 0.613496036 -s 5 -d -1 -p tcp -e 1040 -c 2 -a 0 -i 6 -k AGT 
- -t 0.613496036 -s 5 -d -1 -p tcp -e 1040 -c 2 -a 0 -i 6 -k AGT
h -t 0.613496036 -s 5 -d -1 -p tcp -e 1040 -c 2 -a 0 -i 6 -k AGT
+ -t 0.613496036 -s 5 -d -1 -p tcp -e 1040 -c 2 -a 0 -i 7 -k AGT 
- -t 0.613496036 -s 5 -d -1 -p tcp -e 1040 -c 2 -a 0 -i 7 -k AGT
h -t 0.613496036 -s 5 -d -1 -p tcp -e 1040 -c 2 -a 0 -i 7 -k AGT
+ -t 0.613496036 -s 5 -d 10 -p tcp -e 1040 -c 2 -a 0 -i 6 -k RTR 
- -t 0.613496036 -s 5 -d 10 -p tcp -e 1040 -c 2 -a 0 -i 6 -k RTR
h -t 0.613496036 -s 5 -d 10 -p tcp -e 1040 -c 2 -a 0 -i 6 -k RTR
+ -t 0.613496036 -s 5 -d 10 -p tcp -e 1040 -c 2 -a 0 -i 7 -k RTR 
- -t 0.613496036 -s 5 -d 10 -p tcp -e 1040 -c 2 -a 0 -i 7 -k RTR
h -t 0.613496036 -s 5 -d 10 -p tcp -e 1040 -c 2 -a 0 -i 7 -k RTR
+ -t 0.623402272 -s 10 -d 11 -p tcp -e 1040 -c 2 -a 0 -i 6 -k RTR 
- -t 0.623402272 -s 10 -d 11 -p tcp -e 1040 -c 2 -a 0 -i 6 -k RTR
h -t 0.623402272 -s 10 -d 11 -p tcp -e 1040 -c 2 -a 0 -i 6 -k RTR
+ -t 0.633469253 -s 10 -d 11 -p tcp -e 1040 -c 2 -a 0 -i 7 -k RTR 
- -t 0.633469253 -s 10 -d 11 -p tcp -e 1040 -c 2 -a 0 -i 7 -k RTR
h -t 0.633469253 -s 10 -d 11 -p tcp -e 1040 -c 2 -a 0 -i 7 -k RTR
r -t 0.635495489 -s 5 -d 5 -p ack -e 40 -c 2 -a 0 -i 5 -k AGT
+ -t 0.635495489 -s 5 -d -1 -p tcp -e 1040 -c 2 -a 0 -i 8 -k AGT 
- -t 0.635495489 -s 5 -d -1 -p tcp -e 1040 -c 2 -a 0 -i 8 -k AGT
h -t 0.635495489 -s 5 -d -1 -p tcp -e 1040 -c 2 -a 0 -i 8 -k AGT
+ -t 0.635495489 -s 5 -d -1 -p tcp -e 1040 -c 2 -a 0 -i 9 -k AGT 
- -t 0.635495489 -s 5 -d -1 -p tcp -e 1040 -c 2 -a 0 -i 9 -k AGT
h -t 0.635495489 -s 5 -d -1 -p tcp -e 1040 -c 2 -a 0 -i 9 -k AGT
+ -t 0.635495489 -s 5 -d 10 -p tcp -e 1040 -c 2 -a 0 -i 8 -k RTR 
- -t 0.635495489 -s 5 -d 10 -p tcp -e 1040 -c 2 -a 0 -i 8 -k RTR
h -t 0.635495489 -s 5 -d 10 -p tcp -e 1040 -c 2 -a 0 -i 8 -k RTR
+ -t 0.635495489 -s 5 -d 10 -p tcp -e 1040 -c 2 -a 0 -i 9 -k RTR 
- -t 0.635495489 -s 5 -d 10 -p tcp -e 1040 -c 2 -a 0 -i 9 -k RTR
h -t 0.635495489 -s 5 -d 10 -p tcp -e 1040 -c 2 -a 0 -i 9 -k RTR
+ -t 0.645441725 -s 10 -d 11 -p tcp -e 1040 -c 2 -a 0 -i 8 -k RTR 
- -t 0.645441725 -s 10 -d 11 -p tcp -e 1040 -c 2 -a 0 -i 8 -k RTR
h -t 0.645441725 -s 10 -d 11 -p tcp -e 1040 -c 2 -a 0 -i 8 -k RTR
+ -t 0.655428707 -s 10 -d 11 -p tcp -e 1040 -c 2 -a 0 -i 9 -k RTR 
- -t 0.655428707 -s 10 -d 11 -p tcp -e 1040 -c 2 -a 0 -i 9 -k RTR
h -t 0.655428707 -s 10 -d 11 -p tcp -e 1040 -c 2 -a 0 -i 9 -k RTR
+ -t 0.665334707 -s 11 -d 13 -p tcp -e 1040 -c 2 -a 0 -i 6 -k RTR 
- -t 0.665334707 -s 11 -d 13 -p tcp -e 1040 -c 2 -a 0 -i 6 -k RTR
h -t 0.665334707 -s 11 -d 13 -p tcp -e 1040 -c 2 -a 0 -i 6 -k RTR
+ -t 0.675301374 -s 11 -d 13 -p tcp -e 1040 -c 2 -a 0 -i 7 -k RTR 
- -t 0.675301374 -s 11 -d 13 -p tcp -e 1040 -c 2 -a 0 -i 7 -k RTR
h -t 0.675301374 -s 11 -d 13 -p tcp -e 1040 -c 2 -a 0 -i 7 -k RTR
r -t 0.685586788 -s 13 -d 13 -p tcp -e 1040 -c 2 -a 0 -i 6 -k AGT
+ -t 0.685586788 -s 13 -d -1 -p ack -e 40 -c 2 -a 0 -i 10 -k AGT 
- -t 0.685586788 -s 13 -d -1 -p ack -e 40 -c 2 -a 0 -i 10 -k AGT
h -t 0.685586788 -s 13 -d -1 -p ack -e 40 -c 2 -a 0 -i 10 -k AGT
+ -t 0.685586788 -s 13 -d 11 -p ack -e 40 -c 2 -a 0 -i 10 -k RTR 
- -t 0.685586788 -s 13 -d 11 -p ack -e 40 -c 2 -a 0 -i 10 -k RTR
h -t 0.685586788 -s 13 -d 11 -p ack -e 40 -c 2 -a 0 -i 10 -k RTR
r -t 0.695452673 -s 13 -d 13 -p tcp -e 1040 -c 2 -a 0 -i 7 -k AGT
+ -t 0.695452673 -s 13 -d -1 -p ack -e 40 -c 2 -a 0 -i 11 -k AGT 
- -t 0.695452673 -s 13 -d -1 -p ack -e 40 -c 2 -a 0 -i 11 -k AGT
h -t 0.695452673 -s 13 -d -1 -p ack -e 40 -c 2 -a 0 -i 11 -k AGT
+ -t 0.695452673 -s 13 -d 11 -p ack -e 40 -c 2 -a 0 -i 11 -k RTR 
- -t 0.695452673 -s 13 -d 11 -p ack -e 40 -c 2 -a 0 -i 11 -k RTR
h -t 0.695452673 -s 13 -d 11 -p ack -e 40 -c 2 -a 0 -i 11 -k RTR
+ -t 0.705723727 -s 11 -d 13 -p tcp -e 1040 -c 2 -a 0 -i 8 -k RTR 
- -t 0.705723727 -s 11 -d 13 -p tcp -e 1040 -c 2 -a 0 -i 8 -k RTR
h -t 0.705723727 -s 11 -d 13 -p tcp -e 1040 -c 2 -a 0 -i 8 -k RTR
r -t 0.715589142 -s 13 -d 13 -p tcp -e 1040 -c 2 -a 0 -i 8 -k AGT
+ -t 0.715589142 -s 13 -d -1 -p ack -e 40 -c 2 -a 0 -i 12 -k AGT 
- -t 0.715589142 -s 13 -d -1 -p ack -e 40 -c 2 -a 0 -i 12 -k AGT
h -t 0.715589142 -s 13 -d -1 -p ack -e 40 -c 2 -a 0 -i 12 -k AGT
+ -t 0.715589142 -s 13 -d 11 -p ack -e 40 -c 2 -a 0 -i 12 -k RTR 
- -t 0.715589142 -s 13 -d 11 -p ack -e 40 -c 2 -a 0 -i 12 -k RTR
h -t 0.715589142 -s 13 -d 11 -p ack -e 40 -c 2 -a 0 -i 12 -k RTR
+ -t 0.717474556 -s 11 -d 10 -p ack -e 40 -c 2 -a 0 -i 10 -k RTR 
- -t 0.717474556 -s 11 -d 10 -p ack -e 40 -c 2 -a 0 -i 10 -k RTR
h -t 0.717474556 -s 11 -d 10 -p ack -e 40 -c 2 -a 0 -i 10 -k RTR
+ -t 0.719380556 -s 10 -d 5 -p ack -e 40 -c 2 -a 0 -i 10 -k RTR 
- -t 0.719380556 -s 10 -d 5 -p ack -e 40 -c 2 -a 0 -i 10 -k RTR
h -t 0.719380556 -s 10 -d 5 -p ack -e 40 -c 2 -a 0 -i 10 -k RTR