s 0.000000000 _0_ RTR  --- 0 AODV 44 [0 0 0 0] ------- [0:255 -1:255 1 0] [0x1 1 [0 2] 4.000000] (HELLO)
s 0.000000000 _1_ RTR  --- 0 AODV 44 [0 0 0 0] ------- [1:255 -1:255 1 0] [0x1 1 [1 2] 4.000000] (HELLO)
s 0.000000000 _2_ RTR  --- 0 AODV 44 [0 0 0 0] ------- [2:255 -1:255 1 0] [0x1 1 [2 2] 4.000000] (HELLO)
s 0.000000000 _3_ RTR  --- 0 AODV 44 [0 0 0 0] ------- [3:255 -1:255 1 0] [0x1 1 [3 2] 4.000000] (HELLO)
s 0.000000000 _4_ RTR  --- 0 AODV 44 [0 0 0 0] ------- [4:255 -1:255 1 0] [0x1 1 [4 2] 4.000000] (HELLO)
s 0.000000000 _5_ RTR  --- 0 AODV 44 [0 0 0 0] ------- [5:255 -1:255 1 0] [0x1 1 [5 2] 4.000000] (HELLO)
s 0.000000000 _6_ RTR  --- 0 AODV 44 [0 0 0 0] ------- [6:255 -1:255 1 0] [0x1 1 [6 2] 4.000000] (HELLO)
s 0.000000000 _7_ RTR  --- 0 AODV 44 [0 0 0 0] ------- [7:255 -1:255 1 0] [0x1 1 [7 2] 4.000000] (HELLO)
s 0.000000000 _8_ RTR  --- 0 AODV 44 [0 0 0 0] ------- [8:255 -1:255 1 0] [0x1 1 [8 2] 4.000000] (HELLO)
s 0.000000000 _9_ RTR  --- 0 AODV 44 [0 0 0 0] ------- [9:255 -1:255 1 0] [0x1 1 [9 2] 4.000000] (HELLO)
s 0.000000000 _10_ RTR  --- 0 AODV 44 [0 0 0 0] ------- [10:255 -1:255 1 0] [0x1 1 [10 2] 4.000000] (HELLO)
s 0.000000000 _11_ RTR  --- 0 AODV 44 [0 0 0 0] ------- [11:255 -1:255 1 0] [0x1 1 [11 2] 4.000000] (HELLO)
s 0.000000000 _12_ RTR  --- 0 AODV 44 [0 0 0 0] ------- [12:255 -1:255 1 0] [0x1 1 [12 2] 4.000000] (HELLO)
s 0.000000000 _13_ RTR  --- 0 AODV 44 [0 0 0 0] ------- [13:255 -1:255 1 0] [0x1 1 [13 2] 4.000000] (HELLO)
s 0.000000000 _14_ RTR  --- 0 AODV 44 [0 0 0 0] ------- [14:255 -1:255 1 0] [0x1 1 [14 2] 4.000000] (HELLO)
s 0.000000000 _15_ RTR  --- 0 AODV 44 [0 0 0 0] ------- [15:255 -1:255 1 0] [0x1 1 [15 2] 4.000000] (HELLO)
s 0.000000000 _16_ RTR  --- 0 AODV 44 [0 0 0 0] ------- [16:255 -1:255 1 0] [0x1 1 [16 2] 4.000000] (HELLO)
s 0.000000000 _17_ RTR  --- 0 AODV 44 [0 0 0 0] ------- [17:255 -1:255 1 0] [0x1 1 [17 2] 4.000000] (HELLO)
r 0.000936333 _0_ RTR  --- 0 AODV 44 [0 ffffffff 1 800] ------- [1:255 -1:255 1 0] [0x1 1 [1 2] 4.000000] (HELLO)
r 0.000936333 _3_ RTR  --- 0 AODV 44 [0 ffffffff 1 800] ------- [1:255 -1:255 1 0] [0x1 1 [1 2] 4.000000] (HELLO)
r 0.000936333 _2_ RTR  --- 0 AODV 44 [0 ffffffff 1 800] ------- [1:255 -1:255 1 0] [0x1 1 [1 2] 4.000000] (HELLO)
r 0.000936745 _5_ RTR  --- 0 AODV 44 [0 ffffffff 1 800] ------- [1:255 -1:255 1 0] [0x1 1 [1 2] 4.000000] (HELLO)
r 0.000936745 _4_ RTR  --- 0 AODV 44 [0 ffffffff 1 800] ------- [1:255 -1:255 1 0] [0x1 1 [1 2] 4.000000] (HELLO)
r 0.000996471 _15_ RTR  --- 0 AODV 44 [0 ffffffff d 800] ------- [13:255 -1:255 1 0] [0x1 1 [13 2] 4.000000] (HELLO)
r 0.000996471 _11_ RTR  --- 0 AODV 44 [0 ffffffff d 800] ------- [13:255 -1:255 1 0] [0x1 1 [13 2] 4.000000] (HELLO)
r 0.002002667 _1_ RTR  --- 0 AODV 44 [0 ffffffff 0 800] ------- [0:255 -1:255 1 0] [0x1 1 [0 2] 4.000000] (HELLO)
r 0.002002805 _3_ RTR  --- 0 AODV 44 [0 ffffffff 0 800] ------- [0:255 -1:255 1 0] [0x1 1 [0 2] 4.000000] (HELLO)
r 0.002003000 _2_ RTR  --- 0 AODV 44 [0 ffffffff 0 800] ------- [0:255 -1:255 1 0] [0x1 1 [0 2] 4.000000] (HELLO)
r 0.002142943 _13_ RTR  --- 0 AODV 44 [0 ffffffff b 800] ------- [11:255 -1:255 1 0] [0x1 1 [11 2] 4.000000] (HELLO)
r 0.002143138 _15_ RTR  --- 0 AODV 44 [0 ffffffff b 800] ------- [11:255 -1:255 1 0] [0x1 1 [11 2] 4.000000] (HELLO)
r 0.003129609 _13_ RTR  --- 0 AODV 44 [0 ffffffff f 800] ------- [15:255 -1:255 1 0] [0x1 1 [15 2] 4.000000] (HELLO)
r 0.003129805 _11_ RTR  --- 0 AODV 44 [0 ffffffff f 800] ------- [15:255 -1:255 1 0] [0x1 1 [15 2] 4.000000] (HELLO)
r 0.003394471 _1_ RTR  --- 0 AODV 44 [0 ffffffff 2 800] ------- [2:255 -1:255 1 0] [0x1 1 [2 2] 4.000000] (HELLO)
r 0.003394609 _3_ RTR  --- 0 AODV 44 [0 ffffffff 2 800] ------- [2:255 -1:255 1 0] [0x1 1 [2 2] 4.000000] (HELLO)
r 0.003394805 _0_ RTR  --- 0 AODV 44 [0 ffffffff 2 800] ------- [2:255 -1:255 1 0] [0x1 1 [2 2] 4.000000] (HELLO)
r 0.004380984 _17_ RTR  --- 0 AODV 44 [0 ffffffff 10 800] ------- [16:255 -1:255 1 0] [0x1 1 [16 2] 4.000000] (HELLO)
r 0.004380984 _14_ RTR  --- 0 AODV 44 [0 ffffffff 10 800] ------- [16:255 -1:255 1 0] [0x1 1 [16 2] 4.000000] (HELLO)
r 0.004381258 _12_ RTR  --- 0 AODV 44 [0 ffffffff 10 800] ------- [16:255 -1:255 1 0] [0x1 1 [16 2] 4.000000] (HELLO)
r 0.005367591 _9_ RTR  --- 0 AODV 44 [0 ffffffff c 800] ------- [12:255 -1:255 1 0] [0x1 1 [12 2] 4.000000] (HELLO)
r 0.005367591 _14_ RTR  --- 0 AODV 44 [0 ffffffff c 800] ------- [12:255 -1:255 1 0] [0x1 1 [12 2] 4.000000] (HELLO)
r 0.005367729 _10_ RTR  --- 0 AODV 44 [0 ffffffff c 800] ------- [12:255 -1:255 1 0] [0x1 1 [12 2] 4.000000] (HELLO)
r 0.005367924 _6_ RTR  --- 0 AODV 44 [0 ffffffff c 800] ------- [12:255 -1:255 1 0] [0x1 1 [12 2] 4.000000] (HELLO)
r 0.005368003 _16_ RTR  --- 0 AODV 44 [0 ffffffff c 800] ------- [12:255 -1:255 1 0] [0x1 1 [12 2] 4.000000] (HELLO)
r 0.005368003 _5_ RTR  --- 0 AODV 44 [0 ffffffff c 800] ------- [12:255 -1:255 1 0] [0x1 1 [12 2] 4.000000] (HELLO)
r 0.005368003 _7_ RTR  --- 0 AODV 44 [0 ffffffff c 800] ------- [12:255 -1:255 1 0] [0x1 1 [12 2] 4.000000] (HELLO)
r 0.006253924 _6_ RTR  --- 0 AODV 44 [0 ffffffff 9 800] ------- [9:255 -1:255 1 0] [0x1 1 [9 2] 4.000000] (HELLO)
r 0.006253924 _12_ RTR  --- 0 AODV 44 [0 ffffffff 9 800] ------- [9:255 -1:255 1 0] [0x1 1 [9 2] 4.000000] (HELLO)
r 0.006253924 _10_ RTR  --- 0 AODV 44 [0 ffffffff 9 800] ------- [9:255 -1:255 1 0] [0x1 1 [9 2] 4.000000] (HELLO)
r 0.006254063 _5_ RTR  --- 0 AODV 44 [0 ffffffff 9 800] ------- [9:255 -1:255 1 0] [0x1 1 [9 2] 4.000000] (HELLO)
r 0.006254063 _7_ RTR  --- 0 AODV 44 [0 ffffffff 9 800] ------- [9:255 -1:255 1 0] [0x1 1 [9 2] 4.000000] (HELLO)
r 0.006254258 _4_ RTR  --- 0 AODV 44 [0 ffffffff 9 800] ------- [9:255 -1:255 1 0] [0x1 1 [9 2] 4.000000] (HELLO)
r 0.006254258 _14_ RTR  --- 0 AODV 44 [0 ffffffff 9 800] ------- [9:255 -1:255 1 0] [0x1 1 [9 2] 4.000000] (HELLO)
r 0.006254336 _8_ RTR  --- 0 AODV 44 [0 ffffffff 9 800] ------- [9:255 -1:255 1 0] [0x1 1 [9 2] 4.000000] (HELLO)
r 0.007240591 _12_ RTR  --- 0 AODV 44 [0 ffffffff e 800] ------- [14:255 -1:255 1 0] [0x1 1 [14 2] 4.000000] (HELLO)
r 0.007240729 _16_ RTR  --- 0 AODV 44 [0 ffffffff e 800] ------- [14:255 -1:255 1 0] [0x1 1 [14 2] 4.000000] (HELLO)
r 0.007240924 _9_ RTR  --- 0 AODV 44 [0 ffffffff e 800] ------- [14:255 -1:255 1 0] [0x1 1 [14 2] 4.000000] (HELLO)
r 0.007241003 _10_ RTR  --- 0 AODV 44 [0 ffffffff e 800] ------- [14:255 -1:255 1 0] [0x1 1 [14 2] 4.000000] (HELLO)
r 0.008247336 _7_ RTR  --- 0 AODV 44 [0 ffffffff a 800] ------- [10:255 -1:255 1 0] [0x1 1 [10 2] 4.000000] (HELLO)
r 0.008247336 _9_ RTR  --- 0 AODV 44 [0 ffffffff a 800] ------- [10:255 -1:255 1 0] [0x1 1 [10 2] 4.000000] (HELLO)
r 0.008247475 _12_ RTR  --- 0 AODV 44 [0 ffffffff a 800] ------- [10:255 -1:255 1 0] [0x1 1 [10 2] 4.000000] (HELLO)
r 0.008247475 _6_ RTR  --- 0 AODV 44 [0 ffffffff a 800] ------- [10:255 -1:255 1 0] [0x1 1 [10 2] 4.000000] (HELLO)
r 0.008247475 _8_ RTR  --- 0 AODV 44 [0 ffffffff a 800] ------- [10:255 -1:255 1 0] [0x1 1 [10 2] 4.000000] (HELLO)
r 0.008247670 _11_ RTR  --- 0 AODV 44 [0 ffffffff a 800] ------- [10:255 -1:255 1 0] [0x1 1 [10 2] 4.000000] (HELLO)
r 0.008247749 _14_ RTR  --- 0 AODV 44 [0 ffffffff a 800] ------- [10:255 -1:255 1 0] [0x1 1 [10 2] 4.000000] (HELLO)
r 0.008247749 _4_ RTR  --- 0 AODV 44 [0 ffffffff a 800] ------- [10:255 -1:255 1 0] [0x1 1 [10 2] 4.000000] (HELLO)
r 0.008247749 _5_ RTR  --- 0 AODV 44 [0 ffffffff a 800] ------- [10:255 -1:255 1 0] [0x1 1 [10 2] 4.000000] (HELLO)
r 0.009154082 _6_ RTR  --- 0 AODV 44 [0 ffffffff 4 800] ------- [4:255 -1:255 1 0] [0x1 1 [4 2] 4.000000] (HELLO)
r 0.009154220 _5_ RTR  --- 0 AODV 44 [0 ffffffff 4 800] ------- [4:255 -1:255 1 0] [0x1 1 [4 2] 4.000000] (HELLO)
r 0.009154220 _2_ RTR  --- 0 AODV 44 [0 ffffffff 4 800] ------- [4:255 -1:255 1 0] [0x1 1 [4 2] 4.000000] (HELLO)
r 0.009154220 _7_ RTR  --- 0 AODV 44 [0 ffffffff 4 800] ------- [4:255 -1:255 1 0] [0x1 1 [4 2] 4.000000] (HELLO)
r 0.009154415 _3_ RTR  --- 0 AODV 44 [0 ffffffff 4 800] ------- [4:255 -1:255 1 0] [0x1 1 [4 2] 4.000000] (HELLO)
r 0.009154415 _9_ RTR  --- 0 AODV 44 [0 ffffffff 4 800] ------- [4:255 -1:255 1 0] [0x1 1 [4 2] 4.000000] (HELLO)
r 0.009154494 _1_ RTR  --- 0 AODV 44 [0 ffffffff 4 800] ------- [4:255 -1:255 1 0] [0x1 1 [4 2] 4.000000] (HELLO)
r 0.009154494 _10_ RTR  --- 0 AODV 44 [0 ffffffff 4 800] ------- [4:255 -1:255 1 0] [0x1 1 [4 2] 4.000000] (HELLO)
r 0.009154494 _8_ RTR  --- 0 AODV 44 [0 ffffffff 4 800] ------- [4:255 -1:255 1 0] [0x1 1 [4 2] 4.000000] (HELLO)
r 0.010100749 _1_ RTR  --- 0 AODV 44 [0 ffffffff 3 800] ------- [3:255 -1:255 1 0] [0x1 1 [3 2] 4.000000] (HELLO)
r 0.010100887 _0_ RTR  --- 0 AODV 44 [0 ffffffff 3 800] ------- [3:255 -1:255 1 0] [0x1 1 [3 2] 4.000000] (HELLO)
r 0.010100887 _2_ RTR  --- 0 AODV 44 [0 ffffffff 3 800] ------- [3:255 -1:255 1 0] [0x1 1 [3 2] 4.000000] (HELLO)
r 0.010100887 _5_ RTR  --- 0 AODV 44 [0 ffffffff 3 800] ------- [3:255 -1:255 1 0] [0x1 1 [3 2] 4.000000] (HELLO)
r 0.010101082 _4_ RTR  --- 0 AODV 44 [0 ffffffff 3 800] ------- [3:255 -1:255 1 0] [0x1 1 [3 2] 4.000000] (HELLO)
r 0.010101161 _6_ RTR  --- 0 AODV 44 [0 ffffffff 3 800] ------- [3:255 -1:255 1 0] [0x1 1 [3 2] 4.000000] (HELLO)
r 0.011107494 _4_ RTR  --- 0 AODV 44 [0 ffffffff 6 800] ------- [6:255 -1:255 1 0] [0x1 1 [6 2] 4.000000] (HELLO)
r 0.011107494 _5_ RTR  --- 0 AODV 44 [0 ffffffff 6 800] ------- [6:255 -1:255 1 0] [0x1 1 [6 2] 4.000000] (HELLO)
r 0.011107494 _9_ RTR  --- 0 AODV 44 [0 ffffffff 6 800] ------- [6:255 -1:255 1 0] [0x1 1 [6 2] 4.000000] (HELLO)
r 0.011107494 _7_ RTR  --- 0 AODV 44 [0 ffffffff 6 800] ------- [6:255 -1:255 1 0] [0x1 1 [6 2] 4.000000] (HELLO)
r 0.011107632 _10_ RTR  --- 0 AODV 44 [0 ffffffff 6 800] ------- [6:255 -1:255 1 0] [0x1 1 [6 2] 4.000000] (HELLO)
r 0.011107827 _12_ RTR  --- 0 AODV 44 [0 ffffffff 6 800] ------- [6:255 -1:255 1 0] [0x1 1 [6 2] 4.000000] (HELLO)
r 0.011107827 _8_ RTR  --- 0 AODV 44 [0 ffffffff 6 800] ------- [6:255 -1:255 1 0] [0x1 1 [6 2] 4.000000] (HELLO)
r 0.011107906 _2_ RTR  --- 0 AODV 44 [0 ffffffff 6 800] ------- [6:255 -1:255 1 0] [0x1 1 [6 2] 4.000000] (HELLO)
r 0.011107906 _3_ RTR  --- 0 AODV 44 [0 ffffffff 6 800] ------- [6:255 -1:255 1 0] [0x1 1 [6 2] 4.000000] (HELLO)
r 0.012074161 _7_ RTR  --- 0 AODV 44 [0 ffffffff 8 800] ------- [8:255 -1:255 1 0] [0x1 1 [8 2] 4.000000] (HELLO)
r 0.012074299 _10_ RTR  --- 0 AODV 44 [0 ffffffff 8 800] ------- [8:255 -1:255 1 0] [0x1 1 [8 2] 4.000000] (HELLO)
r 0.012074299 _11_ RTR  --- 0 AODV 44 [0 ffffffff 8 800] ------- [8:255 -1:255 1 0] [0x1 1 [8 2] 4.000000] (HELLO)
r 0.012074494 _6_ RTR  --- 0 AODV 44 [0 ffffffff 8 800] ------- [8:255 -1:255 1 0] [0x1 1 [8 2] 4.000000] (HELLO)
r 0.012074573 _9_ RTR  --- 0 AODV 44 [0 ffffffff 8 800] ------- [8:255 -1:255 1 0] [0x1 1 [8 2] 4.000000] (HELLO)
r 0.012074573 _4_ RTR  --- 0 AODV 44 [0 ffffffff 8 800] ------- [8:255 -1:255 1 0] [0x1 1 [8 2] 4.000000] (HELLO)
r 0.013100494 _6_ RTR  --- 0 AODV 44 [0 ffffffff 7 800] ------- [7:255 -1:255 1 0] [0x1 1 [7 2] 4.000000] (HELLO)
r 0.013100494 _10_ RTR  --- 0 AODV 44 [0 ffffffff 7 800] ------- [7:255 -1:255 1 0] [0x1 1 [7 2] 4.000000] (HELLO)
r 0.013100494 _8_ RTR  --- 0 AODV 44 [0 ffffffff 7 800] ------- [7:255 -1:255 1 0] [0x1 1 [7 2] 4.000000] (HELLO)
r 0.013100632 _9_ RTR  --- 0 AODV 44 [0 ffffffff 7 800] ------- [7:255 -1:255 1 0] [0x1 1 [7 2] 4.000000] (HELLO)
r 0.013100632 _4_ RTR  --- 0 AODV 44 [0 ffffffff 7 800] ------- [7:255 -1:255 1 0] [0x1 1 [7 2] 4.000000] (HELLO)
r 0.013100827 _5_ RTR  --- 0 AODV 44 [0 ffffffff 7 800] ------- [7:255 -1:255 1 0] [0x1 1 [7 2] 4.000000] (HELLO)
r 0.013100906 _12_ RTR  --- 0 AODV 44 [0 ffffffff 7 800] ------- [7:255 -1:255 1 0] [0x1 1 [7 2] 4.000000] (HELLO)
r 0.013100906 _11_ RTR  --- 0 AODV 44 [0 ffffffff 7 800] ------- [7:255 -1:255 1 0] [0x1 1 [7 2] 4.000000] (HELLO)
r 0.014027161 _6_ RTR  --- 0 AODV 44 [0 ffffffff 5 800] ------- [5:255 -1:255 1 0] [0x1 1 [5 2] 4.000000] (HELLO)
r 0.014027299 _3_ RTR  --- 0 AODV 44 [0 ffffffff 5 800] ------- [5:255 -1:255 1 0] [0x1 1 [5 2] 4.000000] (HELLO)
r 0.014027299 _4_ RTR  --- 0 AODV 44 [0 ffffffff 5 800] ------- [5:255 -1:255 1 0] [0x1 1 [5 2] 4.000000] (HELLO)
r 0.014027299 _9_ RTR  --- 0 AODV 44 [0 ffffffff 5 800] ------- [5:255 -1:255 1 0] [0x1 1 [5 2] 4.000000] (HELLO)
r 0.014027494 _2_ RTR  --- 0 AODV 44 [0 ffffffff 5 800] ------- [5:255 -1:255 1 0] [0x1 1 [5 2] 4.000000] (HELLO)
r 0.014027494 _7_ RTR  --- 0 AODV 44 [0 ffffffff 5 800] ------- [5:255 -1:255 1 0] [0x1 1 [5 2] 4.000000] (HELLO)
r 0.014027573 _1_ RTR  --- 0 AODV 44 [0 ffffffff 5 800] ------- [5:255 -1:255 1 0] [0x1 1 [5 2] 4.000000] (HELLO)
r 0.014027573 _12_ RTR  --- 0 AODV 44 [0 ffffffff 5 800] ------- [5:255 -1:255 1 0] [0x1 1 [5 2] 4.000000] (HELLO)
r 0.014027573 _10_ RTR  --- 0 AODV 44 [0 ffffffff 5 800] ------- [5:255 -1:255 1 0] [0x1 1 [5 2] 4.000000] (HELLO)
s 0.500000000 _5_ AGT  --- 0 tcp 40 [0 0 0 0] ------- [5:0 13:0 32 0] [0 0] 0 0
r 0.500000000 _5_ RTR  --- 0 tcp 40 [0 0 0 0] ------- [5:0 13:0 32 0] [0 0] 0 0
s 0.500000000 _5_ RTR  --- 0 AODV 48 [0 0 0 0] ------- [5:255 -1:255 30 0] [0x2 1 -1 [13 0] [5 20]] (REQUEST)
r 0.500948333 _6_ RTR  --- 0 AODV 48 [0 ffffffff 5 800] ------- [5:255 -1:255 30 0] [0x2 1 -1 [13 0] [5 20]] (REQUEST)
r 0.500948471 _3_ RTR  --- 0 AODV 48 [0 ffffffff 5 800] ------- [5:255 -1:255 30 0] [0x2 1 -1 [13 0] [5 20]] (REQUEST)
r 0.500948471 _4_ RTR  --- 0 AODV 48 [0 ffffffff 5 800] ------- [5:255 -1:255 30 0] [0x2 1 -1 [13 0] [5 20]] (REQUEST)
r 0.500948471 _9_ RTR  --- 0 AODV 48 [0 ffffffff 5 800] ------- [5:255 -1:255 30 0] [0x2 1 -1 [13 0] [5 20]] (REQUEST)
r 0.500948667 _2_ RTR  --- 0 AODV 48 [0 ffffffff 5 800] ------- [5:255 -1:255 30 0] [0x2 1 -1 [13 0] [5 20]] (REQUEST)
r 0.500948667 _7_ RTR  --- 0 AODV 48 [0 ffffffff 5 800] ------- [5:255 -1:255 30 0] [0x2 1 -1 [13 0] [5 20]] (REQUEST)
r 0.500948745 _1_ RTR  --- 0 AODV 48 [0 ffffffff 5 800] ------- [5:255 -1:255 30 0] [0x2 1 -1 [13 0] [5 20]] (REQUEST)
r 0.500948745 _12_ RTR  --- 0 AODV 48 [0 ffffffff 5 800] ------- [5:255 -1:255 30 0] [0x2 1 -1 [13 0] [5 20]] (REQUEST)
r 0.500948745 _10_ RTR  --- 0 AODV 48 [0 ffffffff 5 800] ------- [5:255 -1:255 30 0] [0x2 1 -1 [13 0] [5 20]] (REQUEST)
s 0.501450079 _10_ RTR  --- 0 AODV 48 [0 ffffffff 5 800] ------- [10:255 -1:255 29 0] [0x2 2 -1 [13 0] [5 20]] (REQUEST)
s 0.501862315 _1_ RTR  --- 0 AODV 48 [0 ffffffff 5 800] ------- [1:255 -1:255 29 0] [0x2 2 -1 [13 0] [5 20]] (REQUEST)
r 0.502518413 _7_ RTR  --- 0 AODV 48 [0 ffffffff a 800] ------- [10:255 -1:255 29 0] [0x2 2 -1 [13 0] [5 20]] (REQUEST)
r 0.502518413 _9_ RTR  --- 0 AODV 48 [0 ffffffff a 800] ------- [10:255 -1:255 29 0] [0x2 2 -1 [13 0] [5 20]] (REQUEST)
r 0.502518551 _12_ RTR  --- 0 AODV 48 [0 ffffffff a 800] ------- [10:255 -1:255 29 0] [0x2 2 -1 [13 0] [5 20]] (REQUEST)
r 0.502518551 _6_ RTR  --- 0 AODV 48 [0 ffffffff a 800] ------- [10:255 -1:255 29 0] [0x2 2 -1 [13 0] [5 20]] (REQUEST)
r 0.502518551 _8_ RTR  --- 0 AODV 48 [0 ffffffff a 800] ------- [10:255 -1:255 29 0] [0x2 2 -1 [13 0] [5 20]] (REQUEST)
r 0.502518746 _11_ RTR  --- 0 AODV 48 [0 ffffffff a 800] ------- [10:255 -1:255 29 0] [0x2 2 -1 [13 0] [5 20]] (REQUEST)
r 0.502518825 _14_ RTR  --- 0 AODV 48 [0 ffffffff a 800] ------- [10:255 -1:255 29 0] [0x2 2 -1 [13 0] [5 20]] (REQUEST)
r 0.502518825 _4_ RTR  --- 0 AODV 48 [0 ffffffff a 800] ------- [10:255 -1:255 29 0] [0x2 2 -1 [13 0] [5 20]] (REQUEST)
r 0.502518825 _5_ RTR  --- 0 AODV 48 [0 ffffffff a 800] ------- [10:255 -1:255 29 0] [0x2 2 -1 [13 0] [5 20]] (REQUEST)
s 0.502735945 _2_ RTR  --- 0 AODV 48 [0 ffffffff 5 800] ------- [2:255 -1:255 29 0] [0x2 2 -1 [13 0] [5 20]] (REQUEST)
s 0.503015812 _4_ RTR  --- 0 AODV 48 [0 ffffffff 5 800] ------- [4:255 -1:255 29 0] [0x2 2 -1 [13 0] [5 20]] (REQUEST)
s 0.503400748 _11_ RTR  --- 0 AODV 48 [0 ffffffff a 800] ------- [11:255 -1:255 28 0] [0x2 3 -1 [13 0] [5 20]] (REQUEST)
r 0.503841615 _1_ RTR  --- 0 AODV 48 [0 ffffffff 2 800] ------- [2:255 -1:255 29 0] [0x2 2 -1 [13 0] [5 20]] (REQUEST)
r 0.503841753 _3_ RTR  --- 0 AODV 48 [0 ffffffff 2 800] ------- [2:255 -1:255 29 0] [0x2 2 -1 [13 0] [5 20]] (REQUEST)
r 0.503841753 _4_ RTR  --- 0 AODV 48 [0 ffffffff 2 800] ------- [2:255 -1:255 29 0] [0x2 2 -1 [13 0] [5 20]] (REQUEST)
r 0.503841948 _0_ RTR  --- 0 AODV 48 [0 ffffffff 2 800] ------- [2:255 -1:255 29 0] [0x2 2 -1 [13 0] [5 20]] (REQUEST)
r 0.503841948 _5_ RTR  --- 0 AODV 48 [0 ffffffff 2 800] ------- [2:255 -1:255 29 0] [0x2 2 -1 [13 0] [5 20]] (REQUEST)
r 0.503842027 _6_ RTR  --- 0 AODV 48 [0 ffffffff 2 800] ------- [2:255 -1:255 29 0] [0x2 2 -1 [13 0] [5 20]] (REQUEST)
r 0.504879948 _0_ RTR  --- 0 AODV 48 [0 ffffffff 1 800] ------- [1:255 -1:255 29 0] [0x2 2 -1 [13 0] [5 20]] (REQUEST)
r 0.504879948 _3_ RTR  --- 0 AODV 48 [0 ffffffff 1 800] ------- [1:255 -1:255 29 0] [0x2 2 -1 [13 0] [5 20]] (REQUEST)
r 0.504879948 _2_ RTR  --- 0 AODV 48 [0 ffffffff 1 800] ------- [1:255 -1:255 29 0] [0x2 2 -1 [13 0] [5 20]] (REQUEST)
r 0.504880360 _5_ RTR  --- 0 AODV 48 [0 ffffffff 1 800] ------- [1:255 -1:255 29 0] [0x2 2 -1 [13 0] [5 20]] (REQUEST)
r 0.505705419 _13_ RTR  --- 0 AODV 48 [0 ffffffff b 800] ------- [11:255 -1:255 28 0] [0x2 3 -1 [13 0] [5 20]] (REQUEST)
s 0.505705419 _13_ RTR  --- 0 AODV 44 [0 0 0 0] ------- [13:255 5:255 30 11] [0x4 1 [13 8] 10.000000] (REPLY)
r 0.505705615 _15_ RTR  --- 0 AODV 48 [0 ffffffff b 800] ------- [11:255 -1:255 28 0] [0x2 3 -1 [13 0] [5 20]] (REQUEST)
s 0.505865962 _12_ RTR  --- 0 AODV 48 [0 ffffffff 5 800] ------- [12:255 -1:255 29 0] [0x2 2 -1 [13 0] [5 20]] (REQUEST)
s 0.506730751 _8_ RTR  --- 0 AODV 48 [0 ffffffff a 800] ------- [8:255 -1:255 28 0] [0x2 3 -1 [13 0] [5 20]] (REQUEST)
s 0.507897844 _9_ RTR  --- 0 AODV 48 [0 ffffffff 5 800] ------- [9:255 -1:255 29 0] [0x2 2 -1 [13 0] [5 20]] (REQUEST)
s 0.508675429 _3_ RTR  --- 0 AODV 48 [0 ffffffff 5 800] ------- [3:255 -1:255 29 0] [0x2 2 -1 [13 0] [5 20]] (REQUEST)
r 0.509937962 _1_ RTR  --- 0 AODV 48 [0 ffffffff 3 800] ------- [3:255 -1:255 29 0] [0x2 2 -1 [13 0] [5 20]] (REQUEST)
r 0.509938100 _0_ RTR  --- 0 AODV 48 [0 ffffffff 3 800] ------- [3:255 -1:255 29 0] [0x2 2 -1 [13 0] [5 20]] (REQUEST)
r 0.509938100 _2_ RTR  --- 0 AODV 48 [0 ffffffff 3 800] ------- [3:255 -1:255 29 0] [0x2 2 -1 [13 0] [5 20]] (REQUEST)
r 0.509938100 _5_ RTR  --- 0 AODV 48 [0 ffffffff 3 800] ------- [3:255 -1:255 29 0] [0x2 2 -1 [13 0] [5 20]] (REQUEST)
r 0.509938295 _4_ RTR  --- 0 AODV 48 [0 ffffffff 3 800] ------- [3:255 -1:255 29 0] [0x2 2 -1 [13 0] [5 20]] (REQUEST)
r 0.509938374 _6_ RTR  --- 0 AODV 48 [0 ffffffff 3 800] ------- [3:255 -1:255 29 0] [0x2 2 -1 [13 0] [5 20]] (REQUEST)
s 0.510416495 _6_ RTR  --- 0 AODV 48 [0 ffffffff 5 800] ------- [6:255 -1:255 29 0] [0x2 2 -1 [13 0] [5 20]] (REQUEST)
s 0.510662826 _14_ RTR  --- 0 AODV 48 [0 ffffffff a 800] ------- [14:255 -1:255 28 0] [0x2 3 -1 [13 0] [5 20]] (REQUEST)
s 0.510708734 _7_ RTR  --- 0 AODV 48 [0 ffffffff 5 800] ------- [7:255 -1:255 29 0] [0x2 2 -1 [13 0] [5 20]] (REQUEST)
s 0.511200353 _0_ RTR  --- 0 AODV 48 [0 ffffffff 2 800] ------- [0:255 -1:255 28 0] [0x2 3 -1 [13 0] [5 20]] (REQUEST)
s 0.511289700 _15_ RTR  --- 0 AODV 48 [0 ffffffff b 800] ------- [15:255 -1:255 27 0] [0x2 4 -1 [13 0] [5 20]] (REQUEST)
r 0.511294305 _6_ RTR  --- 0 AODV 48 [0 ffffffff 4 800] ------- [4:255 -1:255 29 0] [0x2 2 -1 [13 0] [5 20]] (REQUEST)
r 0.511294443 _5_ RTR  --- 0 AODV 48 [0 ffffffff 4 800] ------- [4:255 -1:255 29 0] [0x2 2 -1 [13 0] [5 20]] (REQUEST)
r 0.511294443 _2_ RTR  --- 0 AODV 48 [0 ffffffff 4 800] ------- [4:255 -1:255 29 0] [0x2 2 -1 [13 0] [5 20]] (REQUEST)
r 0.511294443 _7_ RTR  --- 0 AODV 48 [0 ffffffff 4 800] ------- [4:255 -1:255 29 0] [0x2 2 -1 [13 0] [5 20]] (REQUEST)
r 0.511294638 _3_ RTR  --- 0 AODV 48 [0 ffffffff 4 800] ------- [4:255 -1:255 29 0] [0x2 2 -1 [13 0] [5 20]] (REQUEST)
r 0.511294638 _9_ RTR  --- 0 AODV 48 [0 ffffffff 4 800] ------- [4:255 -1:255 29 0] [0x2 2 -1 [13 0] [5 20]] (REQUEST)
r 0.511294717 _1_ RTR  --- 0 AODV 48 [0 ffffffff 4 800] ------- [4:255 -1:255 29 0] [0x2 2 -1 [13 0] [5 20]] (REQUEST)
r 0.511294717 _10_ RTR  --- 0 AODV 48 [0 ffffffff 4 800] ------- [4:255 -1:255 29 0] [0x2 2 -1 [13 0] [5 20]] (REQUEST)
r 0.511294717 _8_ RTR  --- 0 AODV 48 [0 ffffffff 4 800] ------- [4:255 -1:255 29 0] [0x2 2 -1 [13 0] [5 20]] (REQUEST)
r 0.512312776 _6_ RTR  --- 0 AODV 48 [0 ffffffff 7 800] ------- [7:255 -1:255 29 0] [0x2 2 -1 [13 0] [5 20]] (REQUEST)
r 0.512312776 _10_ RTR  --- 0 AODV 48 [0 ffffffff 7 800] ------- [7:255 -1:255 29 0] [0x2 2 -1 [13 0] [5 20]] (REQUEST)
r 0.512312776 _8_ RTR  --- 0 AODV 48 [0 ffffffff 7 800] ------- [7:255 -1:255 29 0] [0x2 2 -1 [13 0] [5 20]] (REQUEST)
r 0.512312914 _9_ RTR  --- 0 AODV 48 [0 ffffffff 7 800] ------- [7:255 -1:255 29 0] [0x2 2 -1 [13 0] [5 20]] (REQUEST)
r 0.512312914 _4_ RTR  --- 0 AODV 48 [0 ffffffff 7 800] ------- [7:255 -1:255 29 0] [0x2 2 -1 [13 0] [5 20]] (REQUEST)
r 0.512313110 _5_ RTR  --- 0 AODV 48 [0 ffffffff 7 800] ------- [7:255 -1:255 29 0] [0x2 2 -1 [13 0] [5 20]] (REQUEST)
r 0.512313188 _12_ RTR  --- 0 AODV 48 [0 ffffffff 7 800] ------- [7:255 -1:255 29 0] [0x2 2 -1 [13 0] [5 20]] (REQUEST)
r 0.512313188 _11_ RTR  --- 0 AODV 48 [0 ffffffff 7 800] ------- [7:255 -1:255 29 0] [0x2 2 -1 [13 0] [5 20]] (REQUEST)
r 0.513311110 _7_ RTR  --- 0 AODV 48 [0 ffffffff 8 800] ------- [8:255 -1:255 28 0] [0x2 3 -1 [13 0] [5 20]] (REQUEST)
r 0.513311248 _10_ RTR  --- 0 AODV 48 [0 ffffffff 8 800] ------- [8:255 -1:255 28 0] [0x2 3 -1 [13 0] [5 20]] (REQUEST)
r 0.513311248 _11_ RTR  --- 0 AODV 48 [0 ffffffff 8 800] ------- [8:255 -1:255 28 0] [0x2 3 -1 [13 0] [5 20]] (REQUEST)
r 0.513311443 _6_ RTR  --- 0 AODV 48 [0 ffffffff 8 800] ------- [8:255 -1:255 28 0] [0x2 3 -1 [13 0] [5 20]] (REQUEST)
r 0.513311522 _9_ RTR  --- 0 AODV 48 [0 ffffffff 8 800] ------- [8:255 -1:255 28 0] [0x2 3 -1 [13 0] [5 20]] (REQUEST)
r 0.513311522 _4_ RTR  --- 0 AODV 48 [0 ffffffff 8 800] ------- [8:255 -1:255 28 0] [0x2 3 -1 [13 0] [5 20]] (REQUEST)
r 0.514249855 _6_ RTR  --- 0 AODV 48 [0 ffffffff 9 800] ------- [9:255 -1:255 29 0] [0x2 2 -1 [13 0] [5 20]] (REQUEST)
r 0.514249855 _12_ RTR  --- 0 AODV 48 [0 ffffffff 9 800] ------- [9:255 -1:255 29 0] [0x2 2 -1 [13 0] [5 20]] (REQUEST)
r 0.514249855 _10_ RTR  --- 0 AODV 48 [0 ffffffff 9 800] ------- [9:255 -1:255 29 0] [0x2 2 -1 [13 0] [5 20]] (REQUEST)
r 0.514249993 _5_ RTR  --- 0 AODV 48 [0 ffffffff 9 800] ------- [9:255 -1:255 29 0] [0x2 2 -1 [13 0] [5 20]] (REQUEST)
r 0.514249993 _7_ RTR  --- 0 AODV 48 [0 ffffffff 9 800] ------- [9:255 -1:255 29 0] [0x2 2 -1 [13 0] [5 20]] (REQUEST)
r 0.514250188 _4_ RTR  --- 0 AODV 48 [0 ffffffff 9 800] ------- [9:255 -1:255 29 0] [0x2 2 -1 [13 0] [5 20]] (REQUEST)
r 0.514250188 _14_ RTR  --- 0 AODV 48 [0 ffffffff 9 800] ------- [9:255 -1:255 29 0] [0x2 2 -1 [13 0] [5 20]] (REQUEST)
r 0.514250267 _8_ RTR  --- 0 AODV 48 [0 ffffffff 9 800] ------- [9:255 -1:255 29 0] [0x2 2 -1 [13 0] [5 20]] (REQUEST)
r 0.515328188 _4_ RTR  --- 0 AODV 48 [0 ffffffff 6 800] ------- [6:255 -1:255 29 0] [0x2 2 -1 [13 0] [5 20]] (REQUEST)
r 0.515328188 _5_ RTR  --- 0 AODV 48 [0 ffffffff 6 800] ------- [6:255 -1:255 29 0] [0x2 2 -1 [13 0] [5 20]] (REQUEST)
r 0.515328188 _9_ RTR  --- 0 AODV 48 [0 ffffffff 6 800] ------- [6:255 -1:255 29 0] [0x2 2 -1 [13 0] [5 20]] (REQUEST)
r 0.515328188 _7_ RTR  --- 0 AODV 48 [0 ffffffff 6 800] ------- [6:255 -1:255 29 0] [0x2 2 -1 [13 0] [5 20]] (REQUEST)
r 0.515328326 _10_ RTR  --- 0 AODV 48 [0 ffffffff 6 800] ------- [6:255 -1:255 29 0] [0x2 2 -1 [13 0] [5 20]] (REQUEST)
r 0.515328522 _12_ RTR  --- 0 AODV 48 [0 ffffffff 6 800] ------- [6:255 -1:255 29 0] [0x2 2 -1 [13 0] [5 20]] (REQUEST)
r 0.515328522 _8_ RTR  --- 0 AODV 48 [0 ffffffff 6 800] ------- [6:255 -1:255 29 0] [0x2 2 -1 [13 0] [5 20]] (REQUEST)
r 0.515328600 _2_ RTR  --- 0 AODV 48 [0 ffffffff 6 800] ------- [6:255 -1:255 29 0] [0x2 2 -1 [13 0] [5 20]] (REQUEST)
r 0.515328600 _3_ RTR  --- 0 AODV 48 [0 ffffffff 6 800] ------- [6:255 -1:255 29 0] [0x2 2 -1 [13 0] [5 20]] (REQUEST)
r 0.516306855 _9_ RTR  --- 0 AODV 48 [0 ffffffff c 800] ------- [12:255 -1:255 29 0] [0x2 2 -1 [13 0] [5 20]] (REQUEST)
r 0.516306855 _14_ RTR  --- 0 AODV 48 [0 ffffffff c 800] ------- [12:255 -1:255 29 0] [0x2 2 -1 [13 0] [5 20]] (REQUEST)
r 0.516306993 _10_ RTR  --- 0 AODV 48 [0 ffffffff c 800] ------- [12:255 -1:255 29 0] [0x2 2 -1 [13 0] [5 20]] (REQUEST)
r 0.516307188 _6_ RTR  --- 0 AODV 48 [0 ffffffff c 800] ------- [12:255 -1:255 29 0] [0x2 2 -1 [13 0] [5 20]] (REQUEST)
r 0.516307267 _16_ RTR  --- 0 AODV 48 [0 ffffffff c 800] ------- [12:255 -1:255 29 0] [0x2 2 -1 [13 0] [5 20]] (REQUEST)
r 0.516307267 _5_ RTR  --- 0 AODV 48 [0 ffffffff c 800] ------- [12:255 -1:255 29 0] [0x2 2 -1 [13 0] [5 20]] (REQUEST)
r 0.516307267 _7_ RTR  --- 0 AODV 48 [0 ffffffff c 800] ------- [12:255 -1:255 29 0] [0x2 2 -1 [13 0] [5 20]] (REQUEST)
r 0.517425188 _12_ RTR  --- 0 AODV 48 [0 ffffffff e 800] ------- [14:255 -1:255 28 0] [0x2 3 -1 [13 0] [5 20]] (REQUEST)
r 0.517425326 _16_ RTR  --- 0 AODV 48 [0 ffffffff e 800] ------- [14:255 -1:255 28 0] [0x2 3 -1 [13 0] [5 20]] (REQUEST)
r 0.517425522 _9_ RTR  --- 0 AODV 48 [0 ffffffff e 800] ------- [14:255 -1:255 28 0] [0x2 3 -1 [13 0] [5 20]] (REQUEST)
r 0.517425600 _10_ RTR  --- 0 AODV 48 [0 ffffffff e 800] ------- [14:255 -1:255 28 0] [0x2 3 -1 [13 0] [5 20]] (REQUEST)
r 0.518688326 _13_ RTR  --- 0 AODV 48 [0 ffffffff f 800] ------- [15:255 -1:255 27 0] [0x2 4 -1 [13 0] [5 20]] (REQUEST)
r 0.518688522 _11_ RTR  --- 0 AODV 48 [0 ffffffff f 800] ------- [15:255 -1:255 27 0] [0x2 4 -1 [13 0] [5 20]] (REQUEST)
r 0.520891741 _11_ RTR  --- 0 AODV 44 [13a b d 800] ------- [13:255 5:255 30 11] [0x4 1 [13 8] 10.000000] (REPLY)
f 0.520891741 _11_ RTR  --- 0 AODV 44 [13a b d 800] ------- [13:255 5:255 29 10] [0x4 2 [13 8] 10.000000] (REPLY)
s 0.523859622 _16_ RTR  --- 0 AODV 48 [0 ffffffff c 800] ------- [16:255 -1:255 28 0] [0x2 3 -1 [13 0] [5 20]] (REQUEST)
r 0.526263407 _10_ RTR  --- 0 AODV 44 [13a a b 800] ------- [13:255 5:255 29 10] [0x4 2 [13 8] 10.000000] (REPLY)
f 0.526263407 _10_ RTR  --- 0 AODV 44 [13a a b 800] ------- [13:255 5:255 28 5] [0x4 3 [13 8] 10.000000] (REPLY)
r 0.530875625 _5_ RTR  --- 0 AODV 44 [13a 5 a 800] ------- [13:255 5:255 28 5] [0x4 3 [13 8] 10.000000] (REPLY)
s 0.530875625 _5_ RTR  --- 0 tcp 40 [0 0 0 0] ------- [5:0 13:0 30 10] [0 0] 0 0
r 0.533081861 _10_ RTR  --- 0 tcp 40 [13a a 5 800] ------- [5:0 13:0 30 10] [0 0] 1 0
f 0.533081861 _10_ RTR  --- 0 tcp 40 [13a a 5 800] ------- [5:0 13:0 29 11] [0 0] 1 0
r 0.534967861 _11_ RTR  --- 0 tcp 40 [13a b a 800] ------- [5:0 13:0 29 11] [0 0] 2 0
f 0.534967861 _11_ RTR  --- 0 tcp 40 [13a b a 800] ------- [5:0 13:0 28 13] [0 0] 2 0
r 0.537273275 _13_ AGT  --- 0 tcp 40 [13a d b 800] ------- [5:0 13:0 28 13] [0 0] 3 0
s 0.537273275 _13_ AGT  --- 1 ack 40 [0 0 0 0] ------- [13:0 5:0 32 0] [0 0] 0 0
r 0.537273275 _13_ RTR  --- 1 ack 40 [0 0 0 0] ------- [13:0 5:0 32 0] [0 0] 0 0
s 0.537273275 _13_ RTR  --- 1 ack 40 [0 0 0 0] ------- [13:0 5:0 30 11] [0 0] 0 0
r 0.539278689 _11_ RTR  --- 1 ack 40 [13a b d 800] ------- [13:0 5:0 30 11] [0 0] 1 0
f 0.539278689 _11_ RTR  --- 1 ack 40 [13a b d 800] ------- [13:0 5:0 29 10] [0 0] 1 0
r 0.541484689 _10_ RTR  --- 1 ack 40 [13a a b 800] ------- [13:0 5:0 29 10] [0 0] 2 0
f 0.541484689 _10_ RTR  --- 1 ack 40 [13a a b 800] ------- [13:0 5:0 28 5] [0 0] 2 0
r 0.543450925 _5_ AGT  --- 1 ack 40 [13a 5 a 800] ------- [13:0 5:0 28 5] [0 0] 3 0
s 0.543450925 _5_ AGT  --- 2 tcp 1040 [0 0 0 0] ------- [5:0 13:0 32 0] [1 0] 0 0
r 0.543450925 _5_ RTR  --- 2 tcp 1040 [0 0 0 0] ------- [5:0 13:0 32 0] [1 0] 0 0
s 0.543450925 _5_ AGT  --- 3 tcp 1040 [0 0 0 0] ------- [5:0 13:0 32 0] [2 0] 0 0
r 0.543450925 _5_ RTR  --- 3 tcp 1040 [0 0 0 0] ------- [5:0 13:0 32 0] [2 0] 0 0
s 0.543450925 _5_ RTR  --- 2 tcp 1040 [0 0 0 0] ------- [5:0 13:0 30 10] [1 0] 0 0
s 0.543450925 _5_ RTR  --- 3 tcp 1040 [0 0 0 0] ------- [5:0 13:0 30 10] [2 0] 0 0
r 0.553417161 _10_ RTR  --- 2 tcp 1040 [13a a 5 800] ------- [5:0 13:0 30 10] [1 0] 1 0
f 0.553417161 _10_ RTR  --- 2 tcp 1040 [13a a 5 800] ------- [5:0 13:0 29 11] [1 0] 1 0
r 0.563244143 _10_ RTR  --- 3 tcp 1040 [13a a 5 800] ------- [5:0 13:0 30 10] [2 0] 1 0
f 0.563244143 _10_ RTR  --- 3 tcp 1040 [13a a 5 800] ------- [5:0 13:0 29 11] [2 0] 1 0
r 0.573170143 _11_ RTR  --- 2 tcp 1040 [13a b a 800] ------- [5:0 13:0 29 11] [1 0] 2 0
f 0.573170143 _11_ RTR  --- 2 tcp 1040 [13a b a 800] ------- [5:0 13:0 28 13] [1 0] 2 0
r 0.583055557 _13_ AGT  --- 2 tcp 1040 [13a d b 800] ------- [5:0 13:0 28 13] [1 0] 3 0
s 0.583055557 _13_ AGT  --- 4 ack 40 [0 0 0 0] ------- [13:0 5:0 32 0] [1 0] 0 0
r 0.583055557 _13_ RTR  --- 4 ack 40 [0 0 0 0] ------- [13:0 5:0 32 0] [1 0] 0 0
s 0.583055557 _13_ RTR  --- 4 ack 40 [0 0 0 0] ------- [13:0 5:0 30 11] [1 0] 0 0
r 0.585460971 _11_ RTR  --- 4 ack 40 [13a b d 800] ------- [13:0 5:0 30 11] [1 0] 1 0
f 0.585460971 _11_ RTR  --- 4 ack 40 [13a b d 800] ------- [13:0 5:0 29 10] [1 0] 1 0
r 0.587506971 _10_ RTR  --- 4 ack 40 [13a a b 800] ------- [13:0 5:0 29 10] [1 0] 2 0
f 0.587506971 _10_ RTR  --- 4 ack 40 [13a a b 800] ------- [13:0 5:0 28 5] [1 0] 2 0
r 0.597472971 _11_ RTR  --- 3 tcp 1040 [13a b a 800] ------- [5:0 13:0 29 11] [2 0] 2 0
f 0.597472971 _11_ RTR  --- 3 tcp 1040 [13a b a 800] ------- [5:0 13:0 28 13] [2 0] 2 0
r 0.607538386 _13_ AGT  --- 3 tcp 1040 [13a d b 800] ------- [5:0 13:0 28 13] [2 0] 3 0
s 0.607538386 _13_ AGT  --- 5 ack 40 [0 0 0 0] ------- [13:0 5:0 32 0] [2 0] 0 0
r 0.607538386 _13_ RTR  --- 5 ack 40 [0 0 0 0] ------- [13:0 5:0 32 0] [2 0] 0 0
s 0.607538386 _13_ RTR  --- 5 ack 40 [0 0 0 0] ------- [13:0 5:0 30 11] [2 0] 0 0
r 0.609503800 _11_ RTR  --- 5 ack 40 [13a b d 800] ------- [13:0 5:0 30 11] [2 0] 1 0
f 0.609503800 _11_ RTR  --- 5 ack 40 [13a b d 800] ------- [13:0 5:0 29 10] [2 0] 1 0
r 0.611509800 _10_ RTR  --- 5 ack 40 [13a a b 800] ------- [13:0 5:0 29 10] [2 0] 2 0
f 0.611509800 _10_ RTR  --- 5 ack 40 [13a a b 800] ------- [13:0 5:0 28 5] [2 0] 2 0