s 10.000000000 _0_ AGT  --- 0 tcp 40 [0 0 0 0] ------- [0:0 1:0 32 0] [0 0] 0 0
r 10.000000000 _0_ RTR  --- 0 tcp 40 [0 0 0 0] ------- [0:0 1:0 32 0] [0 0] 0 0
s 10.000000000 _0_ RTR  --- 0 AODV 48 [0 0 0 0] ------- [0:255 -1:255 30 0] [0x2 1 1 [1 0] [0 4]] (REQUEST)
r 10.000988471 _1_ RTR  --- 0 AODV 48 [0 ffffffff 0 800] ------- [0:255 -1:255 30 0] [0x2 1 1 [1 0] [0 4]] (REQUEST)
s 10.000988471 _1_ RTR  --- 0 AODV 44 [0 0 0 0] ------- [1:255 0:255 30 0] [0x4 1 [1 4] 10.000000] (REPLY)
r 10.005649771 _0_ RTR  --- 0 AODV 44 [13a 0 1 800] ------- [1:255 0:255 30 0] [0x4 1 [1 4] 10.000000] (REPLY)
s 10.005649771 _0_ RTR  --- 0 tcp 40 [0 0 0 0] ------- [0:0 1:0 30 1] [0 0] 0 0
r 10.007635185 _1_ AGT  --- 0 tcp 40 [13a 1 0 800] ------- [0:0 1:0 30 1] [0 0] 1 0
s 10.007635185 _1_ AGT  --- 1 ack 40 [0 0 0 0] ------- [1:0 0:0 32 0] [0 0] 0 0
r 10.007635185 _1_ RTR  --- 1 ack 40 [0 0 0 0] ------- [1:0 0:0 32 0] [0 0] 0 0
s 10.007635185 _1_ RTR  --- 1 ack 40 [0 0 0 0] ------- [1:0 0:0 30 0] [0 0] 0 0
r 10.009520600 _0_ AGT  --- 1 ack 40 [13a 0 1 800] ------- [1:0 0:0 30 0] [0 0] 1 0
s 10.009520600 _0_ AGT  --- 2 tcp 1040 [0 0 0 0] ------- [0:0 1:0 32 0] [1 0] 0 0
r 10.009520600 _0_ RTR  --- 2 tcp 1040 [0 0 0 0] ------- [0:0 1:0 32 0] [1 0] 0 0
s 10.009520600 _0_ AGT  --- 3 tcp 1040 [0 0 0 0] ------- [0:0 1:0 32 0] [2 0] 0 0
r 10.009520600 _0_ RTR  --- 3 tcp 1040 [0 0 0 0] ------- [0:0 1:0 32 0] [2 0] 0 0
s 10.009520600 _0_ RTR  --- 2 tcp 1040 [0 0 0 0] ------- [0:0 1:0 30 1] [1 0] 0 0
s 10.009520600 _0_ RTR  --- 3 tcp 1040 [0 0 0 0] ------- [0:0 1:0 30 1] [2 0] 0 0
r 10.019546014 _1_ AGT  --- 2 tcp 1040 [13a 1 0 800] ------- [0:0 1:0 30 1] [1 0] 1 0
s 10.019546014 _1_ AGT  --- 4 ack 40 [0 0 0 0] ------- [1:0 0:0 32 0] [1 0] 0 0
r 10.019546014 _1_ RTR  --- 4 ack 40 [0 0 0 0] ------- [1:0 0:0 32 0] [1 0] 0 0
s 10.019546014 _1_ RTR  --- 4 ack 40 [0 0 0 0] ------- [1:0 0:0 30 0] [1 0] 0 0
r 10.021551428 _0_ AGT  --- 4 ack 40 [13a 0 1 800] ------- [1:0 0:0 30 0] [1 0] 1 0
s 10.021551428 _0_ AGT  --- 5 tcp 1040 [0 0 0 0] ------- [0:0 1:0 32 0] [3 0] 0 0
r 10.021551428 _0_ RTR  --- 5 tcp 1040 [0 0 0 0] ------- [0:0 1:0 32 0] [3 0] 0 0
s 10.021551428 _0_ AGT  --- 6 tcp 1040 [0 0 0 0] ------- [0:0 1:0 32 0] [4 0] 0 0
r 10.021551428 _0_ RTR  --- 6 tcp 1040 [0 0 0 0] ------- [0:0 1:0 32 0] [4 0] 0 0
s 10.021551428 _0_ RTR  --- 5 tcp 1040 [0 0 0 0] ------- [0:0 1:0 30 1] [3 0] 0 0
s 10.021551428 _0_ RTR  --- 6 tcp 1040 [0 0 0 0] ------- [0:0 1:0 30 1] [4 0] 0 0
r 10.031456842 _1_ AGT  --- 3 tcp 1040 [13a 1 0 800] ------- [0:0 1:0 30 1] [2 0] 1 0
s 10.031456842 _1_ AGT  --- 7 ack 40 [0 0 0 0] ------- [1:0 0:0 32 0] [2 0] 0 0
r 10.031456842 _1_ RTR  --- 7 ack 40 [0 0 0 0] ------- [1:0 0:0 32 0] [2 0] 0 0
s 10.031456842 _1_ RTR  --- 7 ack 40 [0 0 0 0] ------- [1:0 0:0 30 0] [2 0] 0 0
r 10.041322728 _1_ AGT  --- 5 tcp 1040 [13a 1 0 800] ------- [0:0 1:0 30 1] [3 0] 1 0
s 10.041322728 _1_ AGT  --- 8 ack 40 [0 0 0 0] ------- [1:0 0:0 32 0] [3 0] 0 0
r 10.041322728 _1_ RTR  --- 8 ack 40 [0 0 0 0] ------- [1:0 0:0 32 0] [3 0] 0 0
s 10.041322728 _1_ RTR  --- 8 ack 40 [0 0 0 0] ------- [1:0 0:0 30 0] [3 0] 0 0
r 10.043268142 _0_ AGT  --- 7 ack 40 [13a 0 1 800] ------- [1:0 0:0 30 0] [2 0] 1 0
s 10.043268142 _0_ AGT  --- 9 tcp 1040 [0 0 0 0] ------- [0:0 1:0 32 0] [5 0] 0 0
r 10.043268142 _0_ RTR  --- 9 tcp 1040 [0 0 0 0] ------- [0:0 1:0 32 0] [5 0] 0 0
s 10.043268142 _0_ AGT  --- 10 tcp 1040 [0 0 0 0] ------- [0:0 1:0 32 0] [6 0] 0 0
r 10.043268142 _0_ RTR  --- 10 tcp 1040 [0 0 0 0] ------- [0:0 1:0 32 0] [6 0] 0 0
s 10.043268142 _0_ RTR  --- 9 tcp 1040 [0 0 0 0] ------- [0:0 1:0 30 1] [5 0] 0 0
s 10.043268142 _0_ RTR  --- 10 tcp 1040 [0 0 0 0] ------- [0:0 1:0 30 1] [6 0] 0 0
r 10.045254028 _0_ AGT  --- 8 ack 40 [13a 0 1 800] ------- [1:0 0:0 30 0] [3 0] 1 0
s 10.045254028 _0_ AGT  --- 11 tcp 1040 [0 0 0 0] ------- [0:0 1:0 32 0] [7 0] 0 0
r 10.045254028 _0_ RTR  --- 11 tcp 1040 [0 0 0 0] ------- [0:0 1:0 32 0] [7 0] 0 0
s 10.045254028 _0_ AGT  --- 12 tcp 1040 [0 0 0 0] ------- [0:0 1:0 32 0] [8 0] 0 0
r 10.045254028 _0_ RTR  --- 12 tcp 1040 [0 0 0 0] ------- [0:0 1:0 32 0] [8 0] 0 0
s 10.045254028 _0_ RTR  --- 11 tcp 1040 [0 0 0 0] ------- [0:0 1:0 30 1] [7 0] 0 0
s 10.045254028 _0_ RTR  --- 12 tcp 1040 [0 0 0 0] ------- [0:0 1:0 30 1] [8 0] 0 0
r 10.055339442 _1_ AGT  --- 6 tcp 1040 [13a 1 0 800] ------- [0:0 1:0 30 1] [4 0] 1 0
s 10.055339442 _1_ AGT  --- 13 ack 40 [0 0 0 0] ------- [1:0 0:0 32 0] [4 0] 0 0
r 10.055339442 _1_ RTR  --- 13 ack 40 [0 0 0 0] ------- [1:0 0:0 32 0] [4 0] 0 0
s 10.055339442 _1_ RTR  --- 13 ack 40 [0 0 0 0] ------- [1:0 0:0 30 0] [4 0] 0 0
r 10.057264856 _0_ AGT  --- 13 ack 40 [13a 0 1 800] ------- [1:0 0:0 30 0] [4 0] 1 0
s 10.057264856 _0_ AGT  --- 14 tcp 1040 [0 0 0 0] ------- [0:0 1:0 32 0] [9 0] 0 0
r 10.057264856 _0_ RTR  --- 14 tcp 1040 [0 0 0 0] ------- [0:0 1:0 32 0] [9 0] 0 0
s 10.057264856 _0_ AGT  --- 15 tcp 1040 [0 0 0 0] ------- [0:0 1:0 32 0] [10 0] 0 0
r 10.057264856 _0_ RTR  --- 15 tcp 1040 [0 0 0 0] ------- [0:0 1:0 32 0] [10 0] 0 0
s 10.057264856 _0_ RTR  --- 14 tcp 1040 [0 0 0 0] ------- [0:0 1:0 30 1] [9 0] 0 0
s 10.057264856 _0_ RTR  --- 15 tcp 1040 [0 0 0 0] ------- [0:0 1:0 30 1] [10 0] 0 0
r 10.067250270 _1_ AGT  --- 9 tcp 1040 [13a 1 0 800] ------- [0:0 1:0 30 1] [5 0] 1 0
s 10.067250270 _1_ AGT  --- 16 ack 40 [0 0 0 0] ------- [1:0 0:0 32 0] [5 0] 0 0
r 10.067250270 _1_ RTR  --- 16 ack 40 [0 0 0 0] ------- [1:0 0:0 32 0] [5 0] 0 0
s 10.067250270 _1_ RTR  --- 16 ack 40 [0 0 0 0] ------- [1:0 0:0 30 0] [5 0] 0 0
r 10.077416156 _1_ AGT  --- 10 tcp 1040 [13a 1 0 800] ------- [0:0 1:0 30 1] [6 0] 1 0
s 10.077416156 _1_ AGT  --- 17 ack 40 [0 0 0 0] ------- [1:0 0:0 32 0] [6 0] 0 0
r 10.077416156 _1_ RTR  --- 17 ack 40 [0 0 0 0] ------- [1:0 0:0 32 0] [6 0] 0 0
s 10.077416156 _1_ RTR  --- 17 ack 40 [0 0 0 0] ------- [1:0 0:0 30 0] [6 0] 0 0
r 10.079381570 _0_ AGT  --- 16 ack 40 [13a 0 1 800] ------- [1:0 0:0 30 0] [5 0] 1 0
s 10.079381570 _0_ AGT  --- 18 tcp 1040 [0 0 0 0] ------- [0:0 1:0 32 0] [11 0] 0 0
r 10.079381570 _0_ RTR  --- 18 tcp 1040 [0 0 0 0] ------- [0:0 1:0 32 0] [11 0] 0 0
s 10.079381570 _0_ AGT  --- 19 tcp 1040 [0 0 0 0] ------- [0:0 1:0 32 0] [12 0] 0 0
r 10.079381570 _0_ RTR  --- 19 tcp 1040 [0 0 0 0] ------- [0:0 1:0 32 0] [12 0] 0 0
s 10.079381570 _0_ RTR  --- 18 tcp 1040 [0 0 0 0] ------- [0:0 1:0 30 1] [11 0] 0 0
s 10.079381570 _0_ RTR  --- 19 tcp 1040 [0 0 0 0] ------- [0:0 1:0 30 1] [12 0] 0 0
r 10.089386984 _1_ AGT  --- 11 tcp 1040 [13a 1 0 800] ------- [0:0 1:0 30 1] [7 0] 1 0
s 10.089386984 _1_ AGT  --- 20 ack 40 [0 0 0 0] ------- [1:0 0:0 32 0] [7 0] 0 0
r 10.089386984 _1_ RTR  --- 20 ack 40 [0 0 0 0] ------- [1:0 0:0 32 0] [7 0] 0 0
s 10.089386984 _1_ RTR  --- 20 ack 40 [0 0 0 0] ------- [1:0 0:0 30 0] [7 0] 0 0
r 10.091232399 _0_ AGT  --- 17 ack 40 [13a 0 1 800] ------- [1:0 0:0 30 0] [6 0] 1 0
s 10.091232399 _0_ AGT  --- 21 tcp 1040 [0 0 0 0] ------- [0:0 1:0 32 0] [13 0] 0 0
r 10.091232399 _0_ RTR  --- 21 tcp 1040 [0 0 0 0] ------- [0:0 1:0 32 0] [13 0] 0 0
s 10.091232399 _0_ AGT  --- 22 tcp 1040 [0 0 0 0] ------- [0:0 1:0 32 0] [14 0] 0 0
r 10.091232399 _0_ RTR  --- 22 tcp 1040 [0 0 0 0] ------- [0:0 1:0 32 0] [14 0] 0 0
s 10.091232399 _0_ RTR  --- 21 tcp 1040 [0 0 0 0] ------- [0:0 1:0 30 1] [13 0] 0 0
s 10.091232399 _0_ RTR  --- 22 tcp 1040 [0 0 0 0] ------- [0:0 1:0 30 1] [14 0] 0 0
r 10.093078284 _0_ AGT  --- 20 ack 40 [13a 0 1 800] ------- [1:0 0:0 30 0] [7 0] 1 0
s 10.093078284 _0_ AGT  --- 23 tcp 1040 [0 0 0 0] ------- [0:0 1:0 32 0] [15 0] 0 0
r 10.093078284 _0_ RTR  --- 23 tcp 1040 [0 0 0 0] ------- [0:0 1:0 32 0] [15 0] 0 0
s 10.093078284 _0_ AGT  --- 24 tcp 1040 [0 0 0 0] ------- [0:0 1:0 32 0] [16 0] 0 0
r 10.093078284 _0_ RTR  --- 24 tcp 1040 [0 0 0 0] ------- [0:0 1:0 32 0] [16 0] 0 0
s 10.093078284 _0_ RTR  --- 23 tcp 1040 [0 0 0 0] ------- [0:0 1:0 30 1] [15 0] 0 0
s 10.093078284 _0_ RTR  --- 24 tcp 1040 [0 0 0 0] ------- [0:0 1:0 30 1] [16 0] 0 0
r 10.103103698 _1_ AGT  --- 12 tcp 1040 [13a 1 0 800] ------- [0:0 1:0 30 1] [8 0] 1 0
s 10.103103698 _1_ AGT  --- 25 ack 40 [0 0 0 0] ------- [1:0 0:0 32 0] [8 0] 0 0
r 10.103103698 _1_ RTR  --- 25 ack 40 [0 0 0 0] ------- [1:0 0:0 32 0] [8 0] 0 0
s 10.103103698 _1_ RTR  --- 25 ack 40 [0 0 0 0] ------- [1:0 0:0 30 0] [8 0] 0 0
r 10.104989113 _0_ AGT  --- 25 ack 40 [13a 0 1 800] ------- [1:0 0:0 30 0] [8 0] 1 0
s 10.104989113 _0_ AGT  --- 26 tcp 1040 [0 0 0 0] ------- [0:0 1:0 32 0] [17 0] 0 0
r 10.104989113 _0_ RTR  --- 26 tcp 1040 [0 0 0 0] ------- [0:0 1:0 32 0] [17 0] 0 0
s 10.104989113 _0_ AGT  --- 27 tcp 1040 [0 0 0 0] ------- [0:0 1:0 32 0] [18 0] 0 0
r 10.104989113 _0_ RTR  --- 27 tcp 1040 [0 0 0 0] ------- [0:0 1:0 32 0] [18 0] 0 0
s 10.104989113 _0_ RTR  --- 26 tcp 1040 [0 0 0 0] ------- [0:0 1:0 30 1] [17 0] 0 0
s 10.104989113 _0_ RTR  --- 27 tcp 1040 [0 0 0 0] ------- [0:0 1:0 30 1] [18 0] 0 0
r 10.115214527 _1_ AGT  --- 14 tcp 1040 [13a 1 0 800] ------- [0:0 1:0 30 1] [9 0] 1 0
s 10.115214527 _1_ AGT  --- 28 ack 40 [0 0 0 0] ------- [1:0 0:0 32 0] [9 0] 0 0
r 10.115214527 _1_ RTR  --- 28 ack 40 [0 0 0 0] ------- [1:0 0:0 32 0] [9 0] 0 0
s 10.115214527 _1_ RTR  --- 28 ack 40 [0 0 0 0] ------- [1:0 0:0 30 0] [9 0] 0 0
r 10.125440413 _1_ AGT  --- 15 tcp 1040 [13a 1 0 800] ------- [0:0 1:0 30 1] [10 0] 1 0
s 10.125440413 _1_ AGT  --- 29 ack 40 [0 0 0 0] ------- [1:0 0:0 32 0] [10 0] 0 0
r 10.125440413 _1_ RTR  --- 29 ack 40 [0 0 0 0] ------- [1:0 0:0 32 0] [10 0] 0 0
s 10.125440413 _1_ RTR  --- 29 ack 40 [0 0 0 0] ------- [1:0 0:0 30 0] [10 0] 0 0
r 10.127445827 _0_ AGT  --- 28 ack 40 [13a 0 1 800] ------- [1:0 0:0 30 0] [9 0] 1 0
s 10.127445827 _0_ AGT  --- 30 tcp 1040 [0 0 0 0] ------- [0:0 1:0 32 0] [19 0] 0 0
r 10.127445827 _0_ RTR  --- 30 tcp 1040 [0 0 0 0] ------- [0:0 1:0 32 0] [19 0] 0 0
s 10.127445827 _0_ AGT  --- 31 tcp 1040 [0 0 0 0] ------- [0:0 1:0 32 0] [20 0] 0 0
r 10.127445827 _0_ RTR  --- 31 tcp 1040 [0 0 0 0] ------- [0:0 1:0 32 0] [20 0] 0 0
s 10.127445827 _0_ RTR  --- 30 tcp 1040 [0 0 0 0] ------- [0:0 1:0 30 1] [19 0] 0 0
s 10.127445827 _0_ RTR  --- 31 tcp 1040 [0 0 0 0] ------- [0:0 1:0 30 1] [20 0] 0 0
r 10.139418184 _1_ AGT  --- 18 tcp 1040 [13a 1 0 800] ------- [0:0 1:0 30 1] [11 0] 1 0
s 10.139418184 _1_ AGT  --- 32 ack 40 [0 0 0 0] ------- [1:0 0:0 32 0] [11 0] 0 0
r 10.139418184 _1_ RTR  --- 32 ack 40 [0 0 0 0] ------- [1:0 0:0 32 0] [11 0] 0 0
s 10.139418184 _1_ RTR  --- 32 ack 40 [0 0 0 0] ------- [1:0 0:0 30 0] [11 0] 0 0
r 10.141343598 _0_ AGT  --- 29 ack 40 [13a 0 1 800] ------- [1:0 0:0 30 0] [10 0] 1 0
s 10.141343598 _0_ AGT  --- 33 tcp 1040 [0 0 0 0] ------- [0:0 1:0 32 0] [21 0] 0 0
r 10.141343598 _0_ RTR  --- 33 tcp 1040 [0 0 0 0] ------- [0:0 1:0 32 0] [21 0] 0 0
s 10.141343598 _0_ AGT  --- 34 tcp 1040 [0 0 0 0] ------- [0:0 1:0 32 0] [22 0] 0 0
r 10.141343598 _0_ RTR  --- 34 tcp 1040 [0 0 0 0] ------- [0:0 1:0 32 0] [22 0] 0 0
s 10.141343598 _0_ RTR  --- 33 tcp 1040 [0 0 0 0] ------- [0:0 1:0 30 1] [21 0] 0 0
s 10.141343598 _0_ RTR  --- 34 tcp 1040 [0 0 0 0] ------- [0:0 1:0 30 1] [22 0] 0 0
r 10.143309484 _0_ AGT  --- 32 ack 40 [13a 0 1 800] ------- [1:0 0:0 30 0] [11 0] 1 0
s 10.143309484 _0_ AGT  --- 35 tcp 1040 [0 0 0 0] ------- [0:0 1:0 32 0] [23 0] 0 0
r 10.143309484 _0_ RTR  --- 35 tcp 1040 [0 0 0 0] ------- [0:0 1:0 32 0] [23 0] 0 0
s 10.143309484 _0_ AGT  --- 36 tcp 1040 [0 0 0 0] ------- [0:0 1:0 32 0] [24 0] 0 0
r 10.143309484 _0_ RTR  --- 36 tcp 1040 [0 0 0 0] ------- [0:0 1:0 32 0] [24 0] 0 0
s 10.143309484 _0_ RTR  --- 35 tcp 1040 [0 0 0 0] ------- [0:0 1:0 30 1] [23 0] 0 0
s 10.143309484 _0_ RTR  --- 36 tcp 1040 [0 0 0 0] ------- [0:0 1:0 30 1] [24 0] 0 0
r 10.153274898 _1_ AGT  --- 19 tcp 1040 [13a 1 0 800] ------- [0:0 1:0 30 1] [12 0] 1 0
s 10.153274898 _1_ AGT  --- 37 ack 40 [0 0 0 0] ------- [1:0 0:0 32 0] [12 0] 0 0
r 10.153274898 _1_ RTR  --- 37 ack 40 [0 0 0 0] ------- [1:0 0:0 32 0] [12 0] 0 0
s 10.153274898 _1_ RTR  --- 37 ack 40 [0 0 0 0] ------- [1:0 0:0 30 0] [12 0] 0 0
r 10.163300783 _1_ AGT  --- 21 tcp 1040 [13a 1 0 800] ------- [0:0 1:0 30 1] [13 0] 1 0
s 10.163300783 _1_ AGT  --- 38 ack 40 [0 0 0 0] ------- [1:0 0:0 32 0] [13 0] 0 0
r 10.163300783 _1_ RTR  --- 38 ack 40 [0 0 0 0] ------- [1:0 0:0 32 0] [13 0] 0 0
s 10.163300783 _1_ RTR  --- 38 ack 40 [0 0 0 0] ------- [1:0 0:0 30 0] [13 0] 0 0
r 10.165206198 _0_ AGT  --- 37 ack 40 [13a 0 1 800] ------- [1:0 0:0 30 0] [12 0] 1 0
s 10.165206198 _0_ AGT  --- 39 tcp 1040 [0 0 0 0] ------- [0:0 1:0 32 0] [25 0] 0 0
r 10.165206198 _0_ RTR  --- 39 tcp 1040 [0 0 0 0] ------- [0:0 1:0 32 0] [25 0] 0 0
s 10.165206198 _0_ AGT  --- 40 tcp 1040 [0 0 0 0] ------- [0:0 1:0 32 0] [26 0] 0 0
r 10.165206198 _0_ RTR  --- 40 tcp 1040 [0 0 0 0] ------- [0:0 1:0 32 0] [26 0] 0 0
s 10.165206198 _0_ RTR  --- 39 tcp 1040 [0 0 0 0] ------- [0:0 1:0 30 1] [25 0] 0 0
s 10.165206198 _0_ RTR  --- 40 tcp 1040 [0 0 0 0] ------- [0:0 1:0 30 1] [26 0] 0 0
r 10.175051612 _1_ AGT  --- 22 tcp 1040 [13a 1 0 800] ------- [0:0 1:0 30 1] [14 0] 1 0
s 10.175051612 _1_ AGT  --- 41 ack 40 [0 0 0 0] ------- [1:0 0:0 32 0] [14 0] 0 0
r 10.175051612 _1_ RTR  --- 41 ack 40 [0 0 0 0] ------- [1:0 0:0 32 0] [14 0] 0 0
s 10.175051612 _1_ RTR  --- 41 ack 40 [0 0 0 0] ------- [1:0 0:0 30 0] [14 0] 0 0
r 10.185097497 _1_ AGT  --- 23 tcp 1040 [13a 1 0 800] ------- [0:0 1:0 30 1] [15 0] 1 0
s 10.185097497 _1_ AGT  --- 42 ack 40 [0 0 0 0] ------- [1:0 0:0 32 0] [15 0] 0 0
r 10.185097497 _1_ RTR  --- 42 ack 40 [0 0 0 0] ------- [1:0 0:0 32 0] [15 0] 0 0
s 10.185097497 _1_ RTR  --- 42 ack 40 [0 0 0 0] ------- [1:0 0:0 30 0] [15 0] 0 0
r 10.195123383 _1_ AGT  --- 24 tcp 1040 [13a 1 0 800] ------- [0:0 1:0 30 1] [16 0] 1 0
s 10.195123383 _1_ AGT  --- 43 ack 40 [0 0 0 0] ------- [1:0 0:0 32 0] [16 0] 0 0
r 10.195123383 _1_ RTR  --- 43 ack 40 [0 0 0 0] ------- [1:0 0:0 32 0] [16 0] 0 0
s 10.195123383 _1_ RTR  --- 43 ack 40 [0 0 0 0] ------- [1:0 0:0 30 0] [16 0] 0 0
r 10.197048797 _0_ AGT  --- 38 ack 40 [13a 0 1 800] ------- [1:0 0:0 30 0] [13 0] 1 0
s 10.197048797 _0_ AGT  --- 44 tcp 1040 [0 0 0 0] ------- [0:0 1:0 32 0] [27 0] 0 0
r 10.197048797 _0_ RTR  --- 44 tcp 1040 [0 0 0 0] ------- [0:0 1:0 32 0] [27 0] 0 0
s 10.197048797 _0_ AGT  --- 45 tcp 1040 [0 0 0 0] ------- [0:0 1:0 32 0] [28 0] 0 0
r 10.197048797 _0_ RTR  --- 45 tcp 1040 [0 0 0 0] ------- [0:0 1:0 32 0] [28 0] 0 0
s 10.197048797 _0_ RTR  --- 44 tcp 1040 [0 0 0 0] ------- [0:0 1:0 30 1] [27 0] 0 0
s 10.197048797 _0_ RTR  --- 45 tcp 1040 [0 0 0 0] ------- [0:0 1:0 30 1] [28 0] 0 0
r 10.198934683 _0_ AGT  --- 41 ack 40 [13a 0 1 800] ------- [1:0 0:0 30 0] [14 0] 1 0
s 10.198934683 _0_ AGT  --- 46 tcp 1040 [0 0 0 0] ------- [0:0 1:0 32 0] [29 0] 0 0
r 10.198934683 _0_ RTR  --- 46 tcp 1040 [0 0 0 0] ------- [0:0 1:0 32 0] [29 0] 0 0
s 10.198934683 _0_ AGT  --- 47 tcp 1040 [0 0 0 0] ------- [0:0 1:0 32 0] [30 0] 0 0
r 10.198934683 _0_ RTR  --- 47 tcp 1040 [0 0 0 0] ------- [0:0 1:0 32 0] [30 0] 0 0
s 10.198934683 _0_ RTR  --- 46 tcp 1040 [0 0 0 0] ------- [0:0 1:0 30 1] [29 0] 0 0
s 10.198934683 _0_ RTR  --- 47 tcp 1040 [0 0 0 0] ------- [0:0 1:0 30 1] [30 0] 0 0
r 10.200880569 _0_ AGT  --- 42 ack 40 [13a 0 1 800] ------- [1:0 0:0 30 0] [15 0] 1 0
s 10.200880569 _0_ AGT  --- 48 tcp 1040 [0 0 0 0] ------- [0:0 1:0 32 0] [31 0] 0 0
r 10.200880569 _0_ RTR  --- 48 tcp 1040 [0 0 0 0] ------- [0:0 1:0 32 0] [31 0] 0 0
s 10.200880569 _0_ AGT  --- 49 tcp 1040 [0 0 0 0] ------- [0:0 1:0 32 0] [32 0] 0 0
r 10.200880569 _0_ RTR  --- 49 tcp 1040 [0 0 0 0] ------- [0:0 1:0 32 0] [32 0] 0 0
s 10.200880569 _0_ RTR  --- 48 tcp 1040 [0 0 0 0] ------- [0:0 1:0 30 1] [31 0] 0 0
s 10.200880569 _0_ RTR  --- 49 tcp 1040 [0 0 0 0] ------- [0:0 1:0 30 1] [32 0] 0 0
r 10.211025983 _1_ AGT  --- 26 tcp 1040 [13a 1 0 800] ------- [0:0 1:0 30 1] [17 0] 1 0
s 10.211025983 _1_ AGT  --- 50 ack 40 [0 0 0 0] ------- [1:0 0:0 32 0] [17 0] 0 0
r 10.211025983 _1_ RTR  --- 50 ack 40 [0 0 0 0] ------- [1:0 0:0 32 0] [17 0] 0 0
s 10.211025983 _1_ RTR  --- 50 ack 40 [0 0 0 0] ------- [1:0 0:0 30 0] [17 0] 0 0
r 10.212871397 _0_ AGT  --- 43 ack 40 [13a 0 1 800] ------- [1:0 0:0 30 0] [16 0] 1 0
s 10.212871397 _0_ AGT  --- 51 tcp 1040 [0 0 0 0] ------- [0:0 1:0 32 0] [33 0] 0 0
r 10.212871397 _0_ RTR  --- 51 tcp 1040 [0 0 0 0] ------- [0:0 1:0 32 0] [33 0] 0 0
s 10.212871397 _0_ AGT  --- 52 tcp 1040 [0 0 0 0] ------- [0:0 1:0 32 0] [34 0] 0 0
r 10.212871397 _0_ RTR  --- 52 tcp 1040 [0 0 0 0] ------- [0:0 1:0 32 0] [34 0] 0 0
s 10.212871397 _0_ RTR  --- 51 tcp 1040 [0 0 0 0] ------- [0:0 1:0 30 1] [33 0] 0 0
s 10.212871397 _0_ RTR  --- 52 tcp 1040 [0 0 0 0] ------- [0:0 1:0 30 1] [34 0] 0 0
r 10.214977283 _0_ AGT  --- 50 ack 40 [13a 0 1 800] ------- [1:0 0:0 30 0] [17 0] 1 0
s 10.214977283 _0_ AGT  --- 53 tcp 1040 [0 0 0 0] ------- [0:0 1:0 32 0] [35 0] 0 0
r 10.214977283 _0_ RTR  --- 53 tcp 1040 [0 0 0 0] ------- [0:0 1:0 32 0] [35 0] 0 0
s 10.214977283 _0_ AGT  --- 54 tcp 1040 [0 0 0 0] ------- [0:0 1:0 32 0] [36 0] 0 0
r 10.214977283 _0_ RTR  --- 54 tcp 1040 [0 0 0 0] ------- [0:0 1:0 32 0] [36 0] 0 0
s 10.214977283 _0_ RTR  --- 53 tcp 1040 [0 0 0 0] ------- [0:0 1:0 30 1] [35 0] 0 0
s 10.214977283 _0_ RTR  --- 54 tcp 1040 [0 0 0 0] ------- [0:0 1:0 30 1] [36 0] 0 0
r 10.225022697 _1_ AGT  --- 27 tcp 1040 [13a 1 0 800] ------- [0:0 1:0 30 1] [18 0] 1 0
s 10.225022697 _1_ AGT  --- 55 ack 40 [0 0 0 0] ------- [1:0 0:0 32 0] [18 0] 0 0
r 10.225022697 _1_ RTR  --- 55 ack 40 [0 0 0 0] ------- [1:0 0:0 32 0] [18 0] 0 0
s 10.225022697 _1_ RTR  --- 55 ack 40 [0 0 0 0] ------- [1:0 0:0 30 0] [18 0] 0 0
r 10.227128111 _0_ AGT  --- 55 ack 40 [13a 0 1 800] ------- [1:0 0:0 30 0] [18 0] 1 0
s 10.227128111 _0_ AGT  --- 56 tcp 1040 [0 0 0 0] ------- [0:0 1:0 32 0] [37 0] 0 0
r 10.227128111 _0_ RTR  --- 56 tcp 1040 [0 0 0 0] ------- [0:0 1:0 32 0] [37 0] 0 0
s 10.227128111 _0_ AGT  --- 57 tcp 1040 [0 0 0 0] ------- [0:0 1:0 32 0] [38 0] 0 0
r 10.227128111 _0_ RTR  --- 57 tcp 1040 [0 0 0 0] ------- [0:0 1:0 32 0] [38 0] 0 0
s 10.227128111 _0_ RTR  --- 56 tcp 1040 [0 0 0 0] ------- [0:0 1:0 30 1] [37 0] 0 0
s 10.227128111 _0_ RTR  --- 57 tcp 1040 [0 0 0 0] ------- [0:0 1:0 30 1] [38 0] 0 0
r 10.237153525 _1_ AGT  --- 30 tcp 1040 [13a 1 0 800] ------- [0:0 1:0 30 1] [19 0] 1 0
s 10.237153525 _1_ AGT  --- 58 ack 40 [0 0 0 0] ------- [1:0 0:0 32 0] [19 0] 0 0
r 10.237153525 _1_ RTR  --- 58 ack 40 [0 0 0 0] ------- [1:0 0:0 32 0] [19 0] 0 0
s 10.237153525 _1_ RTR  --- 58 ack 40 [0 0 0 0] ------- [1:0 0:0 30 0] [19 0] 0 0
r 10.239198939 _0_ AGT  --- 58 ack 40 [13a 0 1 800] ------- [1:0 0:0 30 0] [19 0] 1 0
s 10.239198939 _0_ AGT  --- 59 tcp 1040 [0 0 0 0] ------- [0:0 1:0 32 0] [39 0] 0 0
r 10.239198939 _0_ RTR  --- 59 tcp 1040 [0 0 0 0] ------- [0:0 1:0 32 0] [39 0] 0 0
s 10.239198939 _0_ RTR  --- 59 tcp 1040 [0 0 0 0] ------- [0:0 1:0 30 1] [39 0] 0 0
r 10.249124354 _1_ AGT  --- 31 tcp 1040 [13a 1 0 800] ------- [0:0 1:0 30 1] [20 0] 1 0
s 10.249124354 _1_ AGT  --- 60 ack 40 [0 0 0 0] ------- [1:0 0:0 32 0] [20 0] 0 0
r 10.249124354 _1_ RTR  --- 60 ack 40 [0 0 0 0] ------- [1:0 0:0 32 0] [20 0] 0 0
s 10.249124354 _1_ RTR  --- 60 ack 40 [0 0 0 0] ------- [1:0 0:0 30 0] [20 0] 0 0
r 10.251029768 _0_ AGT  --- 60 ack 40 [13a 0 1 800] ------- [1:0 0:0 30 0] [20 0] 1 0
s 10.251029768 _0_ AGT  --- 61 tcp 1040 [0 0 0 0] ------- [0:0 1:0 32 0] [40 0] 0 0
r 10.251029768 _0_ RTR  --- 61 tcp 1040 [0 0 0 0] ------- [0:0 1:0 32 0] [40 0] 0 0
s 10.251029768 _0_ RTR  --- 61 tcp 1040 [0 0 0 0] ------- [0:0 1:0 30 1] [40 0] 0 0
r 10.260995182 _1_ AGT  --- 33 tcp 1040 [13a 1 0 800] ------- [0:0 1:0 30 1] [21 0] 1 0
s 10.260995182 _1_ AGT  --- 62 ack 40 [0 0 0 0] ------- [1:0 0:0 32 0] [21 0] 0 0
r 10.260995182 _1_ RTR  --- 62 ack 40 [0 0 0 0] ------- [1:0 0:0 32 0] [21 0] 0 0
s 10.260995182 _1_ RTR  --- 62 ack 40 [0 0 0 0] ------- [1:0 0:0 30 0] [21 0] 0 0
r 10.270821068 _1_ AGT  --- 34 tcp 1040 [13a 1 0 800] ------- [0:0 1:0 30 1] [22 0] 1 0
s 10.270821068 _1_ AGT  --- 63 ack 40 [0 0 0 0] ------- [1:0 0:0 32 0] [22 0] 0 0
r 10.270821068 _1_ RTR  --- 63 ack 40 [0 0 0 0] ------- [1:0 0:0 32 0] [22 0] 0 0
s 10.270821068 _1_ RTR  --- 63 ack 40 [0 0 0 0] ------- [1:0 0:0 30 0] [22 0] 0 0
r 10.280886953 _1_ AGT  --- 35 tcp 1040 [13a 1 0 800] ------- [0:0 1:0 30 1] [23 0] 1 0
s 10.280886953 _1_ AGT  --- 64 ack 40 [0 0 0 0] ------- [1:0 0:0 32 0] [23 0] 0 0
r 10.280886953 _1_ RTR  --- 64 ack 40 [0 0 0 0] ------- [1:0 0:0 32 0] [23 0] 0 0
s 10.280886953 _1_ RTR  --- 64 ack 40 [0 0 0 0] ------- [1:0 0:0 30 0] [23 0] 0 0
r 10.282772368 _0_ AGT  --- 62 ack 40 [13a 0 1 800] ------- [1:0 0:0 30 0] [21 0] 1 0
s 10.282772368 _0_ AGT  --- 65 tcp 1040 [0 0 0 0] ------- [0:0 1:0 32 0] [41 0] 0 0
r 10.282772368 _0_ RTR  --- 65 tcp 1040 [0 0 0 0] ------- [0:0 1:0 32 0] [41 0] 0 0
s 10.282772368 _0_ RTR  --- 65 tcp 1040 [0 0 0 0] ------- [0:0 1:0 30 1] [41 0] 0 0
r 10.292857782 _1_ AGT  --- 36 tcp 1040 [13a 1 0 800] ------- [0:0 1:0 30 1] [24 0] 1 0
s 10.292857782 _1_ AGT  --- 66 ack 40 [0 0 0 0] ------- [1:0 0:0 32 0] [24 0] 0 0
r 10.292857782 _1_ RTR  --- 66 ack 40 [0 0 0 0] ------- [1:0 0:0 32 0] [24 0] 0 0
s 10.292857782 _1_ RTR  --- 66 ack 40 [0 0 0 0] ------- [1:0 0:0 30 0] [24 0] 0 0
r 10.296270139 _0_ AGT  --- 63 ack 40 [13a 0 1 800] ------- [1:0 0:0 30 0] [22 0] 1 0
s 10.296270139 _0_ AGT  --- 67 tcp 1040 [0 0 0 0] ------- [0:0 1:0 32 0] [42 0] 0 0
r 10.296270139 _0_ RTR  --- 67 tcp 1040 [0 0 0 0] ------- [0:0 1:0 32 0] [42 0] 0 0
s 10.296270139 _0_ RTR  --- 67 tcp 1040 [0 0 0 0] ------- [0:0 1:0 30 1] [42 0] 0 0
r 10.299442024 _0_ AGT  --- 64 ack 40 [13a 0 1 800] ------- [1:0 0:0 30 0] [23 0] 1 0
s 10.299442024 _0_ AGT  --- 68 tcp 1040 [0 0 0 0] ------- [0:0 1:0 32 0] [43 0] 0 0
r 10.299442024 _0_ RTR  --- 68 tcp 1040 [0 0 0 0] ------- [0:0 1:0 32 0] [43 0] 0 0
s 10.299442024 _0_ RTR  --- 68 tcp 1040 [0 0 0 0] ------- [0:0 1:0 30 1] [43 0] 0 0
r 10.309647439 _1_ AGT  --- 39 tcp 1040 [13a 1 0 800] ------- [0:0 1:0 30 1] [25 0] 1 0
s 10.309647439 _1_ AGT  --- 69 ack 40 [0 0 0 0] ------- [1:0 0:0 32 0] [25 0] 0 0
r 10.309647439 _1_ RTR  --- 69 ack 40 [0 0 0 0] ------- [1:0 0:0 32 0] [25 0] 0 0
s 10.309647439 _1_ RTR  --- 69 ack 40 [0 0 0 0] ------- [1:0 0:0 30 0] [25 0] 0 0
r 10.311572853 _0_ AGT  --- 66 ack 40 [13a 0 1 800] ------- [1:0 0:0 30 0] [24 0] 1 0
s 10.311572853 _0_ AGT  --- 70 tcp 1040 [0 0 0 0] ------- [0:0 1:0 32 0] [44 0] 0 0
r 10.311572853 _0_ RTR  --- 70 tcp 1040 [0 0 0 0] ------- [0:0 1:0 32 0] [44 0] 0 0
s 10.311572853 _0_ RTR  --- 70 tcp 1040 [0 0 0 0] ------- [0:0 1:0 30 1] [44 0] 0 0
r 10.321438267 _1_ AGT  --- 40 tcp 1040 [13a 1 0 800] ------- [0:0 1:0 30 1] [26 0] 1 0
s 10.321438267 _1_ AGT  --- 71 ack 40 [0 0 0 0] ------- [1:0 0:0 32 0] [26 0] 0 0
r 10.321438267 _1_ RTR  --- 71 ack 40 [0 0 0 0] ------- [1:0 0:0 32 0] [26 0] 0 0
s 10.321438267 _1_ RTR  --- 71 ack 40 [0 0 0 0] ------- [1:0 0:0 30 0] [26 0] 0 0
r 10.331364153 _1_ AGT  --- 44 tcp 1040 [13a 1 0 800] ------- [0:0 1:0 30 1] [27 0] 1 0
s 10.331364153 _1_ AGT  --- 72 ack 40 [0 0 0 0] ------- [1:0 0:0 32 0] [27 0] 0 0
r 10.331364153 _1_ RTR  --- 72 ack 40 [0 0 0 0] ------- [1:0 0:0 32 0] [27 0] 0 0
s 10.331364153 _1_ RTR  --- 72 ack 40 [0 0 0 0] ------- [1:0 0:0 30 0] [27 0] 0 0
r 10.333249567 _0_ AGT  --- 69 ack 40 [13a 0 1 800] ------- [1:0 0:0 30 0] [25 0] 1 0
s 10.333249567 _0_ AGT  --- 73 tcp 1040 [0 0 0 0] ------- [0:0 1:0 32 0] [45 0] 0 0
r 10.333249567 _0_ RTR  --- 73 tcp 1040 [0 0 0 0] ------- [0:0 1:0 32 0] [45 0] 0 0
s 10.333249567 _0_ RTR  --- 73 tcp 1040 [0 0 0 0] ------- [0:0 1:0 30 1] [45 0] 0 0
r 10.343114981 _1_ AGT  --- 45 tcp 1040 [13a 1 0 800] ------- [0:0 1:0 30 1] [28 0] 1 0
s 10.343114981 _1_ AGT  --- 74 ack 40 [0 0 0 0] ------- [1:0 0:0 32 0] [28 0] 0 0
r 10.343114981 _1_ RTR  --- 74 ack 40 [0 0 0 0] ------- [1:0 0:0 32 0] [28 0] 0 0
s 10.343114981 _1_ RTR  --- 74 ack 40 [0 0 0 0] ------- [1:0 0:0 30 0] [28 0] 0 0
r 10.353140867 _1_ AGT  --- 46 tcp 1040 [13a 1 0 800] ------- [0:0 1:0 30 1] [29 0] 1 0
s 10.353140867 _1_ AGT  --- 75 ack 40 [0 0 0 0] ------- [1:0 0:0 32 0] [29 0] 0 0
r 10.353140867 _1_ RTR  --- 75 ack 40 [0 0 0 0] ------- [1:0 0:0 32 0] [29 0] 0 0
s 10.353140867 _1_ RTR  --- 75 ack 40 [0 0 0 0] ------- [1:0 0:0 30 0] [29 0] 0 0
r 10.354986281 _0_ AGT  --- 71 ack 40 [13a 0 1 800] ------- [1:0 0:0 30 0] [26 0] 1 0
s 10.354986281 _0_ AGT  --- 76 tcp 1040 [0 0 0 0] ------- [0:0 1:0 32 0] [46 0] 0 0
r 10.354986281 _0_ RTR  --- 76 tcp 1040 [0 0 0 0] ------- [0:0 1:0 32 0] [46 0] 0 0
s 10.354986281 _0_ RTR  --- 76 tcp 1040 [0 0 0 0] ------- [0:0 1:0 30 1] [46 0] 0 0
r 10.364871695 _1_ AGT  --- 47 tcp 1040 [13a 1 0 800] ------- [0:0 1:0 30 1] [30 0] 1 0
s 10.364871695 _1_ AGT  --- 77 ack 40 [0 0 0 0] ------- [1:0 0:0 32 0] [30 0] 0 0
r 10.364871695 _1_ RTR  --- 77 ack 40 [0 0 0 0] ------- [1:0 0:0 32 0] [30 0] 0 0
s 10.364871695 _1_ RTR  --- 77 ack 40 [0 0 0 0] ------- [1:0 0:0 30 0] [30 0] 0 0
r 10.366997109 _0_ AGT  --- 72 ack 40 [13a 0 1 800] ------- [1:0 0:0 30 0] [27 0] 1 0
s 10.366997109 _0_ AGT  --- 78 tcp 1040 [0 0 0 0] ------- [0:0 1:0 32 0] [47 0] 0 0
r 10.366997109 _0_ RTR  --- 78 tcp 1040 [0 0 0 0] ------- [0:0 1:0 32 0] [47 0] 0 0
s 10.366997109 _0_ RTR  --- 78 tcp 1040 [0 0 0 0] ------- [0:0 1:0 30 1] [47 0] 0 0
r 10.368942995 _0_ AGT  --- 74 ack 40 [13a 0 1 800] ------- [1:0 0:0 30 0] [28 0] 1 0
s 10.368942995 _0_ AGT  --- 79 tcp 1040 [0 0 0 0] ------- [0:0 1:0 32 0] [48 0] 0 0
r 10.368942995 _0_ RTR  --- 79 tcp 1040 [0 0 0 0] ------- [0:0 1:0 32 0] [48 0] 0 0
s 10.368942995 _0_ RTR  --- 79 tcp 1040 [0 0 0 0] ------- [0:0 1:0 30 1] [48 0] 0 0
r 10.370828881 _0_ AGT  --- 75 ack 40 [13a 0 1 800] ------- [1:0 0:0 30 0] [29 0] 1 0
s 10.370828881 _0_ AGT  --- 80 tcp 1040 [0 0 0 0] ------- [0:0 1:0 32 0] [49 0] 0 0
r 10.370828881 _0_ RTR  --- 80 tcp 1040 [0 0 0 0] ------- [0:0 1:0 32 0] [49 0] 0 0
s 10.370828881 _0_ RTR  --- 80 tcp 1040 [0 0 0 0] ------- [0:0 1:0 30 1] [49 0] 0 0
r 10.380794295 _1_ AGT  --- 48 tcp 1040 [13a 1 0 800] ------- [0:0 1:0 30 1] [31 0] 1 0
s 10.380794295 _1_ AGT  --- 81 ack 40 [0 0 0 0] ------- [1:0 0:0 32 0] [31 0] 0 0
r 10.380794295 _1_ RTR  --- 81 ack 40 [0 0 0 0] ------- [1:0 0:0 32 0] [31 0] 0 0
s 10.380794295 _1_ RTR  --- 81 ack 40 [0 0 0 0] ------- [1:0 0:0 30 0] [31 0] 0 0
r 10.390740180 _1_ AGT  --- 49 tcp 1040 [13a 1 0 800] ------- [0:0 1:0 30 1] [32 0] 1 0
s 10.390740180 _1_ AGT  --- 82 ack 40 [0 0 0 0] ------- [1:0 0:0 32 0] [32 0] 0 0
r 10.390740180 _1_ RTR  --- 82 ack 40 [0 0 0 0] ------- [1:0 0:0 32 0] [32 0] 0 0
s 10.390740180 _1_ RTR  --- 82 ack 40 [0 0 0 0] ------- [1:0 0:0 30 0] [32 0] 0 0
r 10.392885595 _0_ AGT  --- 77 ack 40 [13a 0 1 800] ------- [1:0 0:0 30 0] [30 0] 1 0
s 10.392885595 _0_ AGT  --- 83 tcp 1040 [0 0 0 0] ------- [0:0 1:0 32 0] [50 0] 0 0
r 10.392885595 _0_ RTR  --- 83 tcp 1040 [0 0 0 0] ------- [0:0 1:0 32 0] [50 0] 0 0
s 10.392885595 _0_ RTR  --- 83 tcp 1040 [0 0 0 0] ------- [0:0 1:0 30 1] [50 0] 0 0
r 10.402991009 _1_ AGT  --- 51 tcp 1040 [13a 1 0 800] ------- [0:0 1:0 30 1] [33 0] 1 0
s 10.402991009 _1_ AGT  --- 84 ack 40 [0 0 0 0] ------- [1:0 0:0 32 0] [33 0] 0 0
r 10.402991009 _1_ RTR  --- 84 ack 40 [0 0 0 0] ------- [1:0 0:0 32 0] [33 0] 0 0
s 10.402991009 _1_ RTR  --- 84 ack 40 [0 0 0 0] ------- [1:0 0:0 30 0] [33 0] 0 0
r 10.404976423 _0_ AGT  --- 81 ack 40 [13a 0 1 800] ------- [1:0 0:0 30 0] [31 0] 1 0
s 10.404976423 _0_ AGT  --- 85 tcp 1040 [0 0 0 0] ------- [0:0 1:0 32 0] [51 0] 0 0
r 10.404976423 _0_ RTR  --- 85 tcp 1040 [0 0 0 0] ------- [0:0 1:0 32 0] [51 0] 0 0
s 10.404976423 _0_ RTR  --- 85 tcp 1040 [0 0 0 0] ------- [0:0 1:0 30 1] [51 0] 0 0
r 10.407102309 _0_ AGT  --- 82 ack 40 [13a 0 1 800] ------- [1:0 0:0 30 0] [32 0] 1 0
s 10.407102309 _0_ AGT  --- 86 tcp 1040 [0 0 0 0] ------- [0:0 1:0 32 0] [52 0] 0 0
r 10.407102309 _0_ RTR  --- 86 tcp 1040 [0 0 0 0] ------- [0:0 1:0 32 0] [52 0] 0 0
s 10.407102309 _0_ RTR  --- 86 tcp 1040 [0 0 0 0] ------- [0:0 1:0 30 1] [52 0] 0 0
r 10.417027723 _1_ AGT  --- 52 tcp 1040 [13a 1 0 800] ------- [0:0 1:0 30 1] [34 0] 1 0
s 10.417027723 _1_ AGT  --- 87 ack 40 [0 0 0 0] ------- [1:0 0:0 32 0] [34 0] 0 0
r 10.417027723 _1_ RTR  --- 87 ack 40 [0 0 0 0] ------- [1:0 0:0 32 0] [34 0] 0 0
s 10.417027723 _1_ RTR  --- 87 ack 40 [0 0 0 0] ------- [1:0 0:0 30 0] [34 0] 0 0
r 10.419073137 _0_ AGT  --- 84 ack 40 [13a 0 1 800] ------- [1:0 0:0 30 0] [33 0] 1 0
s 10.419073137 _0_ AGT  --- 88 tcp 1040 [0 0 0 0] ------- [0:0 1:0 32 0] [53 0] 0 0
r 10.419073137 _0_ RTR  --- 88 tcp 1040 [0 0 0 0] ------- [0:0 1:0 32 0] [53 0] 0 0
s 10.419073137 _0_ RTR  --- 88 tcp 1040 [0 0 0 0] ------- [0:0 1:0 30 1] [53 0] 0 0
r 10.428978551 _1_ AGT  --- 53 tcp 1040 [13a 1 0 800] ------- [0:0 1:0 30 1] [35 0] 1 0
s 10.428978551 _1_ AGT  --- 89 ack 40 [0 0 0 0] ------- [1:0 0:0 32 0] [35 0] 0 0
r 10.428978551 _1_ RTR  --- 89 ack 40 [0 0 0 0] ------- [1:0 0:0 32 0] [35 0] 0 0
s 10.428978551 _1_ RTR  --- 89 ack 40 [0 0 0 0] ------- [1:0 0:0 30 0] [35 0] 0 0
r 10.438844437 _1_ AGT  --- 54 tcp 1040 [13a 1 0 800] ------- [0:0 1:0 30 1] [36 0] 1 0
s 10.438844437 _1_ AGT  --- 90 ack 40 [0 0 0 0] ------- [1:0 0:0 32 0] [36 0] 0 0
r 10.438844437 _1_ RTR  --- 90 ack 40 [0 0 0 0] ------- [1:0 0:0 32 0] [36 0] 0 0
s 10.438844437 _1_ RTR  --- 90 ack 40 [0 0 0 0] ------- [1:0 0:0 30 0] [36 0] 0 0
r 10.440889851 _0_ AGT  --- 87 ack 40 [13a 0 1 800] ------- [1:0 0:0 30 0] [34 0] 1 0
s 10.440889851 _0_ AGT  --- 91 tcp 1040 [0 0 0 0] ------- [0:0 1:0 32 0] [54 0] 0 0
r 10.440889851 _0_ RTR  --- 91 tcp 1040 [0 0 0 0] ------- [0:0 1:0 32 0] [54 0] 0 0
s 10.440889851 _0_ RTR  --- 91 tcp 1040 [0 0 0 0] ------- [0:0 1:0 30 1] [54 0] 0 0
r 10.442935737 _0_ AGT  --- 89 ack 40 [13a 0 1 800] ------- [1:0 0:0 30 0] [35 0] 1 0
s 10.442935737 _0_ AGT  --- 92 tcp 1040 [0 0 0 0] ------- [0:0 1:0 32 0] [55 0] 0 0
r 10.442935737 _0_ RTR  --- 92 tcp 1040 [0 0 0 0] ------- [0:0 1:0 32 0] [55 0] 0 0
s 10.442935737 _0_ RTR  --- 92 tcp 1040 [0 0 0 0] ------- [0:0 1:0 30 1] [55 0] 0 0
r 10.452901151 _1_ AGT  --- 56 tcp 1040 [13a 1 0 800] ------- [0:0 1:0 30 1] [37 0] 1 0