n -t * -s 0  -x 410 -y 310 -Z 0 -z 50  -v circle -c black
n -t * -s 1  -x 310 -y 210 -Z 0 -z 50  -v circle -c black
V -t * -v 1.0a5 -a 0
W -t * -x 500 -y 400
A -t * -n 1 -p 0 -o 0x7fffffff -c 30 -a 1
A -t * -h 1 -m 1073741823 -s 0
+ -t 10.000000000 -s 0 -d -1 -p tcp -e 40 -c 2 -a 0 -i 0 -k AGT 
- -t 10.000000000 -s 0 -d -1 -p tcp -e 40 -c 2 -a 0 -i 0 -k AGT
h -t 10.000000000 -s 0 -d -1 -p tcp -e 40 -c 2 -a 0 -i 0 -k AGT
+ -t 10.000000000 -s 0 -d -1 -p AODV -e 48 -c 2 -a 0 -i 0 -k RTR 
- -t 10.000000000 -s 0 -d -1 -p AODV -e 48 -c 2 -a 0 -i 0 -k RTR
h -t 10.000000000 -s 0 -d -1 -p AODV -e 48 -c 2 -a 0 -i 0 -k RTR
r -t 10.000988471 -s 1 -d -1 -p AODV -e 48 -c 2 -a 0 -i 0 -k RTR
+ -t 10.000988471 -s 1 -d 0 -p AODV -e 44 -c 2 -a 0 -i 0 -k RTR 
- -t 10.000988471 -s 1 -d 0 -p AODV -e 44 -c 2 -a 0 -i 0 -k RTR
h -t 10.000988471 -s 1 -d 0 -p AODV -e 44 -c 2 -a 0 -i 0 -k RTR
+ -t 10.005649771 -s 0 -d 1 -p tcp -e 40 -c 2 -a 0 -i 0 -k RTR 
- -t 10.005649771 -s 0 -d 1 -p tcp -e 40 -c 2 -a 0 -i 0 -k RTR
h -t 10.005649771 -s 0 -d 1 -p tcp -e 40 -c 2 -a 0 -i 0 -k RTR
r -t 10.007635185 -s 1 -d 1 -p tcp -e 40 -c 2 -a 0 -i 0 -k AGT
+ -t 10.007635185 -s 1 -d -1 -p ack -e 40 -c 2 -a 0 -i 1 -k AGT 
- -t 10.007635185 -s 1 -d -1 -p ack -e 40 -c 2 -a 0 -i 1 -k AGT
h -t 10.007635185 -s 1 -d -1 -p ack -e 40 -c 2 -a 0 -i 1 -k AGT
+ -t 10.007635185 -s 1 -d 0 -p ack -e 40 -c 2 -a 0 -i 1 -k RTR 
- -t 10.007635185 -s 1 -d 0 -p ack -e 40 -c 2 -a 0 -i 1 -k RTR
h -t 10.007635185 -s 1 -d 0 -p ack -e 40 -c 2 -a 0 -i 1 -k RTR
r -t 10.009520600 -s 0 -d 0 -p ack -e 40 -c 2 -a 0 -i 1 -k AGT
+ -t 10.009520600 -s 0 -d -1 -p tcp -e 1040 -c 2 -a 0 -i 2 -k AGT 
- -t 10.009520600 -s 0 -d -1 -p tcp -e 1040 -c 2 -a 0 -i 2 -k AGT
h -t 10.009520600 -s 0 -d -1 -p tcp -e 1040 -c 2 -a 0 -i 2 -k AGT
+ -t 10.009520600 -s 0 -d -1 -p tcp -e 1040 -c 2 -a 0 -i 3 -k AGT 
- -t 10.009520600 -s 0 -d -1 -p tcp -e 1040 -c 2 -a 0 -i 3 -k AGT
h -t 10.009520600 -s 0 -d -1 -p tcp -e 1040 -c 2 -a 0 -i 3 -k AGT
+ -t 10.009520600 -s 0 -d 1 -p tcp -e 1040 -c 2 -a 0 -i 2 -k RTR 
- -t 10.009520600 -s 0 -d 1 -p tcp -e 1040 -c 2 -a 0 -i 2 -k RTR
h -t 10.009520600 -s 0 -d 1 -p tcp -e 1040 -c 2 -a 0 -i 2 -k RTR
+ -t 10.009520600 -s 0 -d 1 -p tcp -e 1040 -c 2 -a 0 -i 3 -k RTR 
- -t 10.009520600 -s 0 -d 1 -p tcp -e 1040 -c 2 -a 0 -i 3 -k RTR
h -t 10.009520600 -s 0 -d 1 -p tcp -e 1040 -c 2 -a 0 -i 3 -k RTR
r -t 10.019546014 -s 1 -d 1 -p tcp -e 1040 -c 2 -a 0 -i 2 -k AGT
+ -t 10.019546014 -s 1 -d -1 -p ack -e 40 -c 2 -a 0 -i 4 -k AGT 
- -t 10.019546014 -s 1 -d -1 -p ack -e 40 -c 2 -a 0 -i 4 -k AGT
h -t 10.019546014 -s 1 -d -1 -p ack -e 40 -c 2 -a 0 -i 4 -k AGT
+ -t 10.019546014 -s 1 -d 0 -p ack -e 40 -c 2 -a 0 -i 4 -k RTR 
- -t 10.019546014 -s 1 -d 0 -p ack -e 40 -c 2 -a 0 -i 4 -k RTR
h -t 10.019546014 -s 1 -d 0 -p ack -e 40 -c 2 -a 0 -i 4 -k RTR
r -t 10.021551428 -s 0 -d 0 -p ack -e 40 -c 2 -a 0 -i 4 -k AGT
+ -t 10.021551428 -s 0 -d -1 -p tcp -e 1040 -c 2 -a 0 -i 5 -k AGT 
- -t 10.021551428 -s 0 -d -1 -p tcp -e 1040 -c 2 -a 0 -i 5 -k AGT
h -t 10.021551428 -s 0 -d -1 -p tcp -e 1040 -c 2 -a 0 -i 5 -k AGT
+ -t 10.021551428 -s 0 -d -1 -p tcp -e 1040 -c 2 -a 0 -i 6 -k AGT 
- -t 10.021551428 -s 0 -d -1 -p tcp -e 1040 -c 2 -a 0 -i 6 -k AGT
h -t 10.021551428 -s 0 -d -1 -p tcp -e 1040 -c 2 -a 0 -i 6 -k AGT
+ -t 10.021551428 -s 0 -d 1 -p tcp -e 1040 -c 2 -a 0 -i 5 -k RTR 
- -t 10.021551428 -s 0 -d 1 -p tcp -e 1040 -c 2 -a 0 -i 5 -k RTR
h -t 10.021551428 -s 0 -d 1 -p tcp -e 1040 -c 2 -a 0 -i 5 -k RTR
+ -t 10.021551428 -s 0 -d 1 -p tcp -e 1040 -c 2 -a 0 -i 6 -k RTR 
- -t 10.021551428 -s 0 -d 1 -p tcp -e 1040 -c 2 -a 0 -i 6 -k RTR
h -t 10.021551428 -s 0 -d 1 -p tcp -e 1040 -c 2 -a 0 -i 6 -k RTR
r -t 10.031456842 -s 1 -d 1 -p tcp -e 1040 -c 2 -a 0 -i 3 -k AGT
+ -t 10.031456842 -s 1 -d -1 -p ack -e 40 -c 2 -a 0 -i 7 -k AGT 
- -t 10.031456842 -s 1 -d -1 -p ack -e 40 -c 2 -a 0 -i 7 -k AGT
h -t 10.031456842 -s 1 -d -1 -p ack -e 40 -c 2 -a 0 -i 7 -k AGT
+ -t 10.031456842 -s 1 -d 0 -p ack -e 40 -c 2 -a 0 -i 7 -k RTR 
- -t 10.031456842 -s 1 -d 0 -p ack -e 40 -c 2 -a 0 -i 7 -k RTR
h -t 10.031456842 -s 1 -d 0 -p ack -e 40 -c 2 -a 0 -i 7 -k RTR
r -t 10.041322728 -s 1 -d 1 -p tcp -e 1040 -c 2 -a 0 -i 5 -k AGT
+ -t 10.041322728 -s 1 -d -1 -p ack -e 40 -c 2 -a 0 -i 8 -k AGT 
- -t 10.041322728 -s 1 -d -1 -p ack -e 40 -c 2 -a 0 -i 8 -k AGT
h -t 10.041322728 -s 1 -d -1 -p ack -e 40 -c 2 -a 0 -i 8 -k AGT
+ -t 10.041322728 -s 1 -d 0 -p ack -e 40 -c 2 -a 0 -i 8 -k RTR 
- -t 10.041322728 -s 1 -d 0 -p ack -e 40 -c 2 -a 0 -i 8 -k RTR
h -t 10.041322728 -s 1 -d 0 -p ack -e 40 -c 2 -a 0 -i 8 -k RTR
r -t 10.043268142 -s 0 -d 0 -p ack -e 40 -c 2 -a 0 -i 7 -k AGT
+ -t 10.043268142 -s 0 -d -1 -p tcp -e 1040 -c 2 -a 0 -i 9 -k AGT 
- -t 10.043268142 -s 0 -d -1 -p tcp -e 1040 -c 2 -a 0 -i 9 -k AGT
h -t 10.043268142 -s 0 -d -1 -p tcp -e 1040 -c 2 -a 0 -i 9 -k AGT
+ -t 10.043268142 -s 0 -d -1 -p tcp -e 1040 -c 2 -a 0 -i 10 -k AGT 
- -t 10.043268142 -s 0 -d -1 -p tcp -e 1040 -c 2 -a 0 -i 10 -k AGT
h -t 10.043268142 -s 0 -d -1 -p tcp -e 1040 -c 2 -a 0 -i 10 -k AGT
+ -t 10.043268142 -s 0 -d 1 -p tcp -e 1040 -c 2 -a 0 -i 9 -k RTR 
- -t 10.043268142 -s 0 -d 1 -p tcp -e 1040 -c 2 -a 0 -i 9 -k RTR
h -t 10.043268142 -s 0 -d 1 -p tcp -e 1040 -c 2 -a 0 -i 9 -k RTR
+ -t 10.043268142 -s 0 -d 1 -p tcp -e 1040 -c 2 -a 0 -i 10 -k RTR 
- -t 10.043268142 -s 0 -d 1 -p tcp -e 1040 -c 2 -a 0 -i 10 -k RTR
h -t 10.043268142 -s 0 -d 1 -p tcp -e 1040 -c 2 -a 0 -i 10 -k RTR
r -t 10.045254028 -s 0 -d 0 -p ack -e 40 -c 2 -a 0 -i 8 -k AGT
+ -t 10.045254028 -s 0 -d -1 -p tcp -e 1040 -c 2 -a 0 -i 11 -k AGT 
- -t 10.045254028 -s 0 -d -1 -p tcp -e 1040 -c 2 -a 0 -i 11 -k AGT
h -t 10.045254028 -s 0 -d -1 -p tcp -e 1040 -c 2 -a 0 -i 11 -k AGT
+ -t 10.045254028 -s 0 -d -1 -p tcp -e 1040 -c 2 -a 0 -i 12 -k AGT 
- -t 10.045254028 -s 0 -d -1 -p tcp -e 1040 -c 2 -a 0 -i 12 -k AGT
h -t 10.045254028 -s 0 -d -1 -p tcp -e 1040 -c 2 -a 0 -i 12 -k AGT
+ -t 10.045254028 -s 0 -d 1 -p tcp -e 1040 -c 2 -a 0 -i 11 -k RTR 
- -t 10.045254028 -s 0 -d 1 -p tcp -e 1040 -c 2 -a 0 -i 11 -k RTR
h -t 10.045254028 -s 0 -d 1 -p tcp -e 1040 -c 2 -a 0 -i 11 -k RTR
+ -t 10.045254028 -s 0 -d 1 -p tcp -e 1040 -c 2 -a 0 -i 12 -k RTR 
- -t 10.045254028 -s 0 -d 1 -p tcp -e 1040 -c 2 -a 0 -i 12 -k RTR
h -t 10.045254028 -s 0 -d 1 -p tcp -e 1040 -c 2 -a 0 -i 12 -k RTR
r -t 10.055339442 -s 1 -d 1 -p tcp -e 1040 -c 2 -a 0 -i 6 -k AGT
+ -t 10.055339442 -s 1 -d -1 -p ack -e 40 -c 2 -a 0 -i 13 -k AGT 
- -t 10.055339442 -s 1 -d -1 -p ack -e 40 -c 2 -a 0 -i 13 -k AGT
h -t 10.055339442 -s 1 -d -1 -p ack -e 40 -c 2 -a 0 -i 13 -k AGT
+ -t 10.055339442 -s 1 -d 0 -p ack -e 40 -c 2 -a 0 -i 13 -k RTR 
- -t 10.055339442 -s 1 -d 0 -p ack -e 40 -c 2 -a 0 -i 13 -k RTR
h -t 10.055339442 -s 1 -d 0 -p ack -e 40 -c 2 -a 0 -i 13 -k RTR
r -t 10.057264856 -s 0 -d 0 -p ack -e 40 -c 2 -a 0 -i 13 -k AGT
+ -t 10.057264856 -s 0 -d -1 -p tcp -e 1040 -c 2 -a 0 -i 14 -k AGT 
- -t 10.057264856 -s 0 -d -1 -p tcp -e 1040 -c 2 -a 0 -i 14 -k AGT
h -t 10.057264856 -s 0 -d -1 -p tcp -e 1040 -c 2 -a 0 -i 14 -k AGT
+ -t 10.057264856 -s 0 -d -1 -p tcp -e 1040 -c 2 -a 0 -i 15 -k AGT 
- -t 10.057264856 -s 0 -d -1 -p tcp -e 1040 -c 2 -a 0 -i 15 -k AGT
h -t 10.057264856 -s 0 -d -1 -p tcp -e 1040 -c 2 -a 0 -i 15 -k AGT
+ -t 10.057264856 -s 0 -d 1 -p tcp -e 1040 -c 2 -a 0 -i 14 -k RTR 
- -t 10.057264856 -s 0 -d 1 -p tcp -e 1040 -c 2 -a 0 -i 14 -k RTR
h -t 10.057264856 -s 0 -d 1 -p tcp -e 1040 -c 2 -a 0 -i 14 -k RTR
+ -t 10.057264856 -s 0 -d 1 -p tcp -e 1040 -c 2 -a 0 -i 15 -k RTR 
- -t 10.057264856 -s 0 -d 1 -p tcp -e 1040 -c 2 -a 0 -i 15 -k RTR
h -t 10.057264856 -s 0 -d 1 -p tcp -e 1040 -c 2 -a 0 -i 15 -k RTR
r -t 10.067250270 -s 1 -d 1 -p tcp -e 1040 -c 2 -a 0 -i 9 -k AGT
+ -t 10.067250270 -s 1 -d -1 -p ack -e 40 -c 2 -a 0 -i 16 -k AGT 
- -t 10.067250270 -s 1 -d -1 -p ack -e 40 -c 2 -a 0 -i 16 -k AGT
h -t 10.067250270 -s 1 -d -1 -p ack -e 40 -c 2 -a 0 -i 16 -k AGT
+ -t 10.067250270 -s 1 -d 0 -p ack -e 40 -c 2 -a 0 -i 16 -k RTR 
- -t 10.067250270 -s 1 -d 0 -p ack -e 40 -c 2 -a 0 -i 16 -k RTR
h -t 10.067250270 -s 1 -d 0 -p ack -e 40 -c 2 -a 0 -i 16 -k RTR
r -t 10.077416156 -s 1 -d 1 -p tcp -e 1040 -c 2 -a 0 -i 10 -k AGT
+ -t 10.077416156 -s 1 -d -1 -p ack -e 40 -c 2 -a 0 -i 17 -k AGT 
- -t 10.077416156 -s 1 -d -1 -p ack -e 40 -c 2 -a 0 -i 17 -k AGT
h -t 10.077416156 -s 1 -d -1 -p ack -e 40 -c 2 -a 0 -i 17 -k AGT
+ -t 10.077416156 -s 1 -d 0 -p ack -e 40 -c 2 -a 0 -i 17 -k RTR 
- -t 10.077416156 -s 1 -d 0 -p ack -e 40 -c 2 -a 0 -i 17 -k RTR
h -t 10.077416156 -s 1 -d 0 -p ack -e 40 -c 2 -a 0 -i 17 -k RTR
r -t 10.079381570 -s 0 -d 0 -p ack -e 40 -c 2 -a 0 -i 16 -k AGT
+ -t 10.079381570 -s 0 -d -1 -p tcp -e 1040 -c 2 -a 0 -i 18 -k AGT 
- -t 10.079381570 -s 0 -d -1 -p tcp -e 1040 -c 2 -a 0 -i 18 -k AGT
h -t 10.079381570 -s 0 -d -1 -p tcp -e 1040 -c 2 -a 0 -i 18 -k AGT
+ -t 10.079381570 -s 0 -d -1 -p tcp -e 1040 -c 2 -a 0 -i 19 -k AGT 
- -t 10.079381570 -s 0 -d -1 -p tcp -e 1040 -c 2 -a 0 -i 19 -k AGT
h -t 10.079381570 -s 0 -d -1 -p tcp -e 1040 -c 2 -a 0 -i 19 -k AGT
+ -t 10.079381570 -s 0 -d 1 -p tcp -e 1040 -c 2 -a 0 -i 18 -k RTR 
- -t 10.079381570 -s 0 -d 1 -p tcp -e 1040 -c 2 -a 0 -i 18 -k RTR
h -t 10.079381570 -s 0 -d 1 -p tcp -e 1040 -c 2 -a 0 -i 18 -k RTR
+ -t 10.079381570 -s 0 -d 1 -p tcp -e 1040 -c 2 -a 0 -i 19 -k RTR 
- -t 10.079381570 -s 0 -d 1 -p tcp -e 1040 -c 2 -a 0 -i 19 -k RTR
h -t 10.079381570 -s 0 -d 1 -p tcp -e 1040 -c 2 -a 0 -i 19 -k RTR
r -t 10.089386984 -s 1 -d 1 -p tcp -e 1040 -c 2 -a 0 -i 11 -k AGT
+ -t 10.089386984 -s 1 -d -1 -p ack -e 40 -c 2 -a 0 -i 20 -k AGT 
- -t 10.089386984 -s 1 -d -1 -p ack -e 40 -c 2 -a 0 -i 20 -k AGT
h -t 10.089386984 -s 1 -d -1 -p ack -e 40 -c 2 -a 0 -i 20 -k AGT
+ -t 10.089386984 -s 1 -d 0 -p ack -e 40 -c 2 -a 0 -i 20 -k RTR 
- -t 10.089386984 -s 1 -d 0 -p ack -e 40 -c 2 -a 0 -i 20 -k RTR
h -t 10.089386984 -s 1 -d 0 -p ack -e 40 -c 2 -a 0 -i 20 -k RTR
r -t 10.091232399 -s 0 -d 0 -p ack -e 40 -c 2 -a 0 -i 17 -k AGT
+ -t 10.091232399 -s 0 -d -1 -p tcp -e 1040 -c 2 -a 0 -i 21 -k AGT 
- -t 10.091232399 -s 0 -d -1 -p tcp -e 1040 -c 2 -a 0 -i 21 -k AGT
h -t 10.091232399 -s 0 -d -1 -p tcp -e 1040 -c 2 -a 0 -i 21 -k AGT
+ -t 10.091232399 -s 0 -d -1 -p tcp -e 1040 -c 2 -a 0 -i 22 -k AGT 
- -t 10.091232399 -s 0 -d -1 -p tcp -e 1040 -c 2 -a 0 -i 22 -k AGT
h -t 10.091232399 -s 0 -d -1 -p tcp -e 1040 -c 2 -a 0 -i 22 -k AGT
+ -t 10.091232399 -s 0 -d 1 -p tcp -e 1040 -c 2 -a 0 -i 21 -k RTR 
- -t 10.091232399 -s 0 -d 1 -p tcp -e 1040 -c 2 -a 0 -i 21 -k RTR
h -t 10.091232399 -s 0 -d 1 -p tcp -e 1040 -c 2 -a 0 -i 21 -k RTR
+ -t 10.091232399 -s 0 -d 1 -p tcp -e 1040 -c 2 -a 0 -i 22 -k RTR 
- -t 10.091232399 -s 0 -d 1 -p tcp -e 1040 -c 2 -a 0 -i 22 -k RTR
h -t 10.091232399 -s 0 -d 1 -p tcp -e 1040 -c 2 -a 0 -i 22 -k RTR
r -t 10.093078284 -s 0 -d 0 -p ack -e 40 -c 2 -a 0 -i 20 -k AGT
+ -t 10.093078284 -s 0 -d -1 -p tcp -e 1040 -c 2 -a 0 -i 23 -k AGT 
- -t 10.093078284 -s 0 -d -1 -p tcp -e 1040 -c 2 -a 0 -i 23 -k AGT
h -t 10.093078284 -s 0 -d -1 -p tcp -e 1040 -c 2 -a 0 -i 23 -k AGT
+ -t 10.093078284 -s 0 -d -1 -p tcp -e 1040 -c 2 -a 0 -i 24 -k AGT 
- -t 10.093078284 -s 0 -d -1 -p tcp -e 1040 -c 2 -a 0 -i 24 -k AGT
h -t 10.093078284 -s 0 -d -1 -p tcp -e 1040 -c 2 -a 0 -i 24 -k AGT
+ -t 10.093078284 -s 0 -d 1 -p tcp -e 1040 -c 2 -a 0 -i 23 -k RTR 
- -t 10.093078284 -s 0 -d 1 -p tcp -e 1040 -c 2 -a 0 -i 23 -k RTR
h -t 10.093078284 -s 0 -d 1 -p tcp -e 1040 -c 2 -a 0 -i 23 -k RTR
+ -t 10.093078284 -s 0 -d 1 -p tcp -e 1040 -c 2 -a 0 -i 24 -k RTR 
- -t 10.093078284 -s 0 -d 1 -p tcp -e 1040 -c 2 -a 0 -i 24 -k RTR
h -t 10.093078284 -s 0 -d 1 -p tcp -e 1040 -c 2 -a 0 -i 24 -k RTR
r -t 10.103103698 -s 1 -d 1 -p tcp -e 1040 -c 2 -a 0 -i 12 -k AGT
+ -t 10.103103698 -s 1 -d -1 -p ack -e 40 -c 2 -a 0 -i 25 -k AGT 
- -t 10.103103698 -s 1 -d -1 -p ack -e 40 -c 2 -a 0 -i 25 -k AGT
h -t 10.103103698 -s 1 -d -1 -p ack -e 40 -c 2 -a 0 -i 25 -k AGT
+ -t 10.103103698 -s 1 -d 0 -p ack -e 40 -c 2 -a 0 -i 25 -k RTR 
- -t 10.103103698 -s 1 -d 0 -p ack -e 40 -c 2 -a 0 -i 25 -k RTR
h -t 10.103103698 -s 1 -d 0 -p ack -e 40 -c 2 -a 0 -i 25 -k RTR
r -t 10.104989113 -s 0 -d 0 -p ack -e 40 -c 2 -a 0 -i 25 -k AGT
+ -t 10.104989113 -s 0 -d -1 -p tcp -e 1040 -c 2 -a 0 -i 26 -k AGT 
- -t 10.104989113 -s 0 -d -1 -p tcp -e 1040 -c 2 -a 0 -i 26 -k AGT
h -t 10.104989113 -s 0 -d -1 -p tcp -e 1040 -c 2 -a 0 -i 26 -k AGT
+ -t 10.104989113 -s 0 -d -1 -p tcp -e 1040 -c 2 -a 0 -i 27 -k AGT 
- -t 10.104989113 -s 0 -d -1 -p tcp -e 1040 -c 2 -a 0 -i 27 -k AGT
h -t 10.104989113 -s 0 -d -1 -p tcp -e 1040 -c 2 -a 0 -i 27 -k AGT
+ -t 10.104989113 -s 0 -d 1 -p tcp -e 1040 -c 2 -a 0 -i 26 -k RTR 
- -t 10.104989113 -s 0 -d 1 -p tcp -e 1040 -c 2 -a 0 -i 26 -k RTR
h -t 10.104989113 -s 0 -d 1 -p tcp -e 1040 -c 2 -a 0 -i 26 -k RTR
+ -t 10.104989113 -s 0 -d 1 -p tcp -e 1040 -c 2 -a 0 -i 27 -k RTR 
- -t 10.104989113 -s 0 -d 1 -p tcp -e 1040 -c 2 -a 0 -i 27 -k RTR
h -t 10.104989113 -s 0 -d 1 -p tcp -e 1040 -c 2 -a 0 -i 27 -k RTR
r -t 10.115214527 -s 1 -d 1 -p tcp -e 1040 -c 2 -a 0 -i 14 -k AGT
+ -t 10.115214527 -s 1 -d -1 -p ack -e 40 -c 2 -a 0 -i 28 -k AGT 
- -t 10.115214527 -s 1 -d -1 -p ack -e 40 -c 2 -a 0 -i 28 -k AGT
h -t 10.115214527 -s 1 -d -1 -p ack -e 40 -c 2 -a 0 -i 28 -k AGT
+ -t 10.115214527 -s 1 -d 0 -p ack -e 40 -c 2 -a 0 -i 28 -k RTR 
- -t 10.115214527 -s 1 -d 0 -p ack -e 40 -c 2 -a 0 -i 28 -k RTR
h -t 10.115214527 -s 1 -d 0 -p ack -e 40 -c 2 -a 0 -i 28 -k RTR
r -t 10.125440413 -s 1 -d 1 -p tcp -e 1040 -c 2 -a 0 -i 15 -k AGT
+ -t 10.125440413 -s 1 -d -1 -p ack -e 40 -c 2 -a 0 -i 29 -k AGT 
- -t 10.125440413 -s 1 -d -1 -p ack -e 40 -c 2 -a 0 -i 29 -k AGT
h -t 10.125440413 -s 1 -d -1 -p ack -e 40 -c 2 -a 0 -i 29 -k AGT
+ -t 10.125440413 -s 1 -d 0 -p ack -e 40 -c 2 -a 0 -i 29 -k RTR 
- -t 10.125440413 -s 1 -d 0 -p ack -e 40 -c 2 -a 0 -i 29 -k RTR
h -t 10.125440413 -s 1 -d 0 -p ack -e 40 -c 2 -a 0 -i 29 -k RTR
r -t 10.127445827 -s 0 -d 0 -p ack -e 40 -c 2 -a 0 -i 28 -k AGT
+ -t 10.127445827 -s 0 -d -1 -p tcp -e 1040 -c 2 -a 0 -i 30 -k AGT 
- -t 10.127445827 -s 0 -d -1 -p tcp -e 1040 -c 2 -a 0 -i 30 -k AGT
h -t 10.127445827 -s 0 -d -1 -p tcp -e 1040 -c 2 -a 0 -i 30 -k AGT
+ -t 10.127445827 -s 0 -d -1 -p tcp -e 1040 -c 2 -a 0 -i 31 -k AGT 
- -t 10.127445827 -s 0 -d -1 -p tcp -e 1040 -c 2 -a 0 -i 31 -k AGT
h -t 10.127445827 -s 0 -d -1 -p tcp -e 1040 -c 2 -a 0 -i 31 -k AGT
+ -t 10.127445827 -s 0 -d 1 -p tcp -e 1040 -c 2 -a 0 -i 30 -k RTR 
- -t 10.127445827 -s 0 -d 1 -p tcp -e 1040 -c 2 -a 0 -i 30 -k RTR
h -t 10.127445827 -s 0 -d 1 -p tcp -e 1040 -c 2 -a 0 -i 30 -k RTR
+ -t 10.127445827 -s 0 -d 1 -p tcp -e 1040 -c 2 -a 0 -i 31 -k RTR 
- -t 10.127445827 -s 0 -d 1 -p tcp -e 1040 -c 2 -a 0 -i 31 -k RTR
h -t 10.127445827 -s 0 -d 1 -p tcp -e 1040 -c 2 -a 0 -i 31 -k RTR
r -t 10.139418184 -s 1 -d 1 -p tcp -e 1040 -c 2 -a 0 -i 18 -k AGT
+ -t 10.139418184 -s 1 -d -1 -p ack -e 40 -c 2 -a 0 -i 32 -k AGT 
- -t 10.139418184 -s 1 -d -1 -p ack -e 40 -c 2 -a 0 -i 32 -k AGT
h -t 10.139418184 -s 1 -d -1 -p ack -e 40 -c 2 -a 0 -i 32 -k AGT
+ -t 10.139418184 -s 1 -d 0 -p ack -e 40 -c 2 -a 0 -i 32 -k RTR 
- -t 10.139418184 -s 1 -d 0 -p ack -e 40 -c 2 -a 0 -i 32 -k RTR
h -t 10.139418184 -s 1 -d 0 -p ack -e 40 -c 2 -a 0 -i 32 -k RTR
r -t 10.141343598 -s 0 -d 0 -p ack -e 40 -c 2 -a 0 -i 29 -k AGT
+ -t 10.141343598 -s 0 -d -1 -p tcp -e 1040 -c 2 -a 0 -i 33 -k AGT 
- -t 10.141343598 -s 0 -d -1 -p tcp -e 1040 -c 2 -a 0 -i 33 -k AGT
h -t 10.141343598 -s 0 -d -1 -p tcp -e 1040 -c 2 -a 0 -i 33 -k AGT
+ -t 10.141343598 -s 0 -d -1 -p tcp -e 1040 -c 2 -a 0 -i 34 -k AGT 
- -t 10.141343598 -s 0 -d -1 -p tcp -e 1040 -c 2 -a 0 -i 34 -k AGT
h -t 10.141343598 -s 0 -d -1 -p tcp -e 1040 -c 2 -a 0 -i 34 -k AGT
+ -t 10.141343598 -s 0 -d 1 -p tcp -e 1040 -c 2 -a 0 -i 33 -k RTR 
- -t 10.141343598 -s 0 -d 1 -p tcp -e 1040 -c 2 -a 0 -i 33 -k RTR
h -t 10.141343598 -s 0 -d 1 -p tcp -e 1040 -c 2 -a 0 -i 33 -k RTR
+ -t 10.141343598 -s 0 -d 1 -p tcp -e 1040 -c 2 -a 0 -i 34 -k RTR 
- -t 10.141343598 -s 0 -d 1 -p tcp -e 1040 -c 2 -a 0 -i 34 -k RTR
h -t 10.141343598 -s 0 -d 1 -p tcp -e 1040 -c 2 -a 0 -i 34 -k RTR
r -t 10.143309484 -s 0 -d 0 -p ack -e 40 -c 2 -a 0 -i 32 -k AGT
+ -t 10.143309484 -s 0 -d -1 -p tcp -e 1040 -c 2 -a 0 -i 35 -k AGT 
- -t 10.143309484 -s 0 -d -1 -p tcp -e 1040 -c 2 -a 0 -i 35 -k AGT
h -t 10.143309484 -s 0 -d -1 -p tcp -e 1040 -c 2 -a 0 -i 35 -k AGT
+ -t 10.143309484 -s 0 -d -1 -p tcp -e 1040 -c 2 -a 0 -i 36 -k AGT 
- -t 10.143309484 -s 0 -d -1 -p tcp -e 1040 -c 2 -a 0 -i 36 -k AGT
h -t 10.143309484 -s 0 -d -1 -p tcp -e 1040 -c 2 -a 0 -i 36 -k AGT
+ -t 10.143309484 -s 0 -d 1 -p tcp -e 1040 -c 2 -a 0 -i 35 -k RTR 
- -t 10.143309484 -s 0 -d 1 -p tcp -e 1040 -c 2 -a 0 -i 35 -k RTR
h -t 10.143309484 -s 0 -d 1 -p tcp -e 1040 -c 2 -a 0 -i 35 -k RTR
+ -t 10.143309484 -s 0 -d 1 -p tcp -e 1040 -c 2 -a 0 -i 36 -k RTR 
- -t 10.143309484 -s 0 -d 1 -p tcp -e 1040 -c 2 -a 0 -i 36 -k RTR
h -t 10.143309484 -s 0 -d 1 -p tcp -e 1040 -c 2 -a 0 -i 36 -k RTR
r -t 10.153274898 -s 1 -d 1 -p tcp -e 1040 -c 2 -a 0 -i 19 -k AGT
+ -t 10.153274898 -s 1 -d -1 -p ack -e 40 -c 2 -a 0 -i 37 -k AGT 
- -t 10.153274898 -s 1 -d -1 -p ack -e 40 -c 2 -a 0 -i 37 -k AGT
h -t 10.153274898 -s 1 -d -1 -p ack -e 40 -c 2 -a 0 -i 37 -k AGT
+ -t 10.153274898 -s 1 -d 0 -p ack -e 40 -c 2 -a 0 -i 37 -k RTR 
- -t 10.153274898 -s 1 -d 0 -p ack -e 40 -c 2 -a 0 -i 37 -k RTR
h -t 10.153274898 -s 1 -d 0 -p ack -e 40 -c 2 -a 0 -i 37 -k RTR
r -t 10.163300783 -s 1 -d 1 -p tcp -e 1040 -c 2 -a 0 -i 21 -k AGT
+ -t 10.163300783 -s 1 -d -1 -p ack -e 40 -c 2 -a 0 -i 38 -k AGT 
- -t 10.163300783 -s 1 -d -1 -p ack -e 40 -c 2 -a 0 -i 38 -k AGT
h -t 10.163300783 -s 1 -d -1 -p ack -e 40 -c 2 -a 0 -i 38 -k AGT
+ -t 10.163300783 -s 1 -d 0 -p ack -e 40 -c 2 -a 0 -i 38 -k RTR 
- -t 10.163300783 -s 1 -d 0 -p ack -e 40 -c 2 -a 0 -i 38 -k RTR
h -t 10.163300783 -s 1 -d 0 -p ack -e 40 -c 2 -a 0 -i 38 -k RTR
r -t 10.165206198 -s 0 -d 0 -p ack -e 40 -c 2 -a 0 -i 37 -k AGT
+ -t 10.165206198 -s 0 -d -1 -p tcp -e 1040 -c 2 -a 0 -i 39 -k AGT 
- -t 10.165206198 -s 0 -d -1 -p tcp -e 1040 -c 2 -a 0 -i 39 -k AGT
h -t 10.165206198 -s 0 -d -1 -p tcp -e 1040 -c 2 -a 0 -i 39 -k AGT
+ -t 10.165206198 -s 0 -d -1 -p tcp -e 1040 -c 2 -a 0 -i 40 -k AGT 
- -t 10.165206198 -s 0 -d -1 -p tcp -e 1040 -c 2 -a 0 -i 40 -k AGT
h -t 10.165206198 -s 0 -d -1 -p tcp -e 1040 -c 2 -a 0 -i 40 -k AGT
+ -t 10.165206198 -s 0 -d 1 -p tcp -e 1040 -c 2 -a 0 -i 39 -k RTR 
- -t 10.165206198 -s 0 -d 1 -p tcp -e 1040 -c 2 -a 0 -i 39 -k RTR
h -t 10.165206198 -s 0 -d 1 -p tcp -e 1040 -c 2 -a 0 -i 39 -k RTR
+ -t 10.165206198 -s 0 -d 1 -p tcp -e 1040 -c 2 -a 0 -i 40 -k RTR 
- -t 10.165206198 -s 0 -d 1 -p tcp -e 1040 -c 2 -a 0 -i 40 -k RTR
h -t 10.165206198 -s 0 -d 1 -p tcp -e 1040 -c 2 -a 0 -i 40 -k RTR
r -t 10.175051612 -s 1 -d 1 -p tcp -e 1040 -c 2 -a 0 -i 22 -k AGT
+ -t 10.175051612 -s 1 -d -1 -p ack -e 40 -c 2 -a 0 -i 41 -k AGT 
- -t 10.175051612 -s 1 -d -1 -p ack -e 40 -c 2 -a 0 -i 41 -k AGT
h -t 10.175051612 -s 1 -d -1 -p ack -e 40 -c 2 -a 0 -i 41 -k AGT
+ -t 10.175051612 -s 1 -d 0 -p ack -e 40 -c 2 -a 0 -i 41 -k RTR 
- -t 10.175051612 -s 1 -d 0 -p ack -e 40 -c 2 -a 0 -i 41 -k RTR
h -t 10.175051612 -s 1 -d 0 -p ack -e 40 -c 2 -a 0 -i 41 -k RTR
r -t 10.185097497 -s 1 -d 1 -p tcp -e 1040 -c 2 -a 0 -i 23 -k AGT
+ -t 10.185097497 -s 1 -d -1 -p ack -e 40 -c 2 -a 0 -i 42 -k AGT 
- -t 10.185097497 -s 1 -d -1 -p ack -e 40 -c 2 -a 0 -i 42 -k AGT
h -t 10.185097497 -s 1 -d -1 -p ack -e 40 -c 2 -a 0 -i 42 -k AGT
+ -t 10.185097497 -s 1 -d 0 -p ack -e 40 -c 2 -a 0 -i 42 -k RTR 
- -t 10.185097497 -s 1 -d 0 -p ack -e 40 -c 2 -a 0 -i 42 -k RTR
h -t 10.185097497 -s 1 -d 0 -p ack -e 40 -c 2 -a 0 -i 42 -k RTR
r -t 10.195123383 -s 1 -d 1 -p tcp -e 1040 -c 2 -a 0 -i 24 -k AGT
+ -t 10.195123383 -s 1 -d -1 -p ack -e 40 -c 2 -a 0 -i 43 -k AGT 
- -t 10.195123383 -s 1 -d -1 -p ack -e 40 -c 2 -a 0 -i 43 -k AGT
h -t 10.195123383 -s 1 -d -1 -p ack -e 40 -c 2 -a 0 -i 43 -k AGT
+ -t 10.195123383 -s 1 -d 0 -p ack -e 40 -c 2 -a 0 -i 43 -k RTR 
- -t 10.195123383 -s 1 -d 0 -p ack -e 40 -c 2 -a 0 -i 43 -k RTR
h -t 10.195123383 -s 1 -d 0 -p ack -e 40 -c 2 -a 0 -i 43 -k RTR
r -t 10.197048797 -s 0 -d 0 -p ack -e 40 -c 2 -a 0 -i 38 -k AGT
+ -t 10.197048797 -s 0 -d -1 -p tcp -e 1040 -c 2 -a 0 -i 44 -k AGT 
- -t 10.197048797 -s 0 -d -1 -p tcp -e 1040 -c 2 -a 0 -i 44 -k AGT
h -t 10.197048797 -s 0 -d -1 -p tcp -e 1040 -c 2 -a 0 -i 44 -k AGT
+ -t 10.197048797 -s 0 -d -1 -p tcp -e 1040 -c 2 -a 0 -i 45 -k AGT 
- -t 10.197048797 -s 0 -d -1 -p tcp -e 1040 -c 2 -a 0 -i 45 -k AGT
h -t 10.197048797 -s 0 -d -1 -p tcp -e 1040 -c 2 -a 0 -i 45 -k AGT
+ -t 10.197048797 -s 0 -d 1 -p tcp -e 1040 -c 2 -a 0 -i 44 -k RTR 
- -t 10.197048797 -s 0 -d 1 -p tcp -e 1040 -c 2 -a 0 -i 44 -k RTR
h -t 10.197048797 -s 0 -d 1 -p tcp -e 1040 -c 2 -a 0 -i 44 -k RTR
+ -t 10.197048797 -s 0 -d 1 -p tcp -e 1040 -c 2 -a 0 -i 45 -k RTR 
- -t 10.197048797 -s 0 -d 1 -p tcp -e 1040 -c 2 -a 0 -i 45 -k RTR
h -t 10.197048797 -s 0 -d 1 -p tcp -e 1040 -c 2 -a 0 -i 45 -k RTR
r -t 10.198934683 -s 0 -d 0 -p ack -e 40 -c 2 -a 0 -i 41 -k AGT
+ -t 10.198934683 -s 0 -d -1 -p tcp -e 1040 -c 2 -a 0 -i 46 -k AGT 
- -t 10.198934683 -s 0 -d -1 -p tcp -e 1040 -c 2 -a 0 -i 46 -k AGT
h -t 10.198934683 -s 0 -d -1 -p tcp -e 1040 -c 2 -a 0 -i 46 -k AGT
+ -t 10.198934683 -s 0 -d -1 -p tcp -e 1040 -c 2 -a 0 -i 47 -k AGT 
- -t 10.198934683 -s 0 -d -1 -p tcp -e 1040 -c 2 -a 0 -i 47 -k AGT
h -t 10.198934683 -s 0 -d -1 -p tcp -e 1040 -c 2 -a 0 -i 47 -k AGT
+ -t 10.198934683 -s 0 -d 1 -p tcp -e 1040 -c 2 -a 0 -i 46 -k RTR 
- -t 10.198934683 -s 0 -d 1 -p tcp -e 1040 -c 2 -a 0 -i 46 -k RTR
h -t 10.198934683 -s 0 -d 1 -p tcp -e 1040 -c 2 -a 0 -i 46 -k RTR
+ -t 10.198934683 -s 0 -d 1 -p tcp -e 1040 -c 2 -a 0 -i 47 -k RTR 
- -t 10.198934683 -s 0 -d 1 -p tcp -e 1040 -c 2 -a 0 -i 47 -k RTR
h -t 10.198934683 -s 0 -d 1 -p tcp -e 1040 -c 2 -a 0 -i 47 -k RTR
r -t 10.200880569 -s 0 -d 0 -p ack -e 40 -c 2 -a 0 -i 42 -k AGT
+ -t 10.200880569 -s 0 -d -1 -p tcp -e 1040 -c 2 -a 0 -i 48 -k AGT 
- -t 10.200880569 -s 0 -d -1 -p tcp -e 1040 -c 2 -a 0 -i 48 -k AGT
h -t 10.200880569 -s 0 -d -1 -p tcp -e 1040 -c 2 -a 0 -i 48 -k AGT
+ -t 10.200880569 -s 0 -d -1 -p tcp -e 1040 -c 2 -a 0 -i 49 -k AGT 
- -t 10.200880569 -s 0 -d -1 -p tcp -e 1040 -c 2 -a 0 -i 49 -k AGT
h -t 10.200880569 -s 0 -d -1 -p tcp -e 1040 -c 2 -a 0 -i 49 -k AGT
+ -t 10.200880569 -s 0 -d 1 -p tcp -e 1040 -c 2 -a 0 -i 48 -k RTR 
- -t 10.200880569 -s 0 -d 1 -p tcp -e 1040 -c 2 -a 0 -i 48 -k RTR
h -t 10.200880569 -s 0 -d 1 -p tcp -e 1040 -c 2 -a 0 -i 48 -k RTR
+ -t 10.200880569 -s 0 -d 1 -p tcp -e 1040 -c 2 -a 0 -i 49 -k RTR 
- -t 10.200880569 -s 0 -d 1 -p tcp -e 1040 -c 2 -a 0 -i 49 -k RTR
h -t 10.200880569 -s 0 -d 1 -p tcp -e 1040 -c 2 -a 0 -i 49 -k RTR
r -t 10.211025983 -s 1 -d 1 -p tcp -e 1040 -c 2 -a 0 -i 26 -k AGT
+ -t 10.211025983 -s 1 -d -1 -p ack -e 40 -c 2 -a 0 -i 50 -k AGT 
- -t 10.211025983 -s 1 -d -1 -p ack -e 40 -c 2 -a 0 -i 50 -k AGT
h -t 10.211025983 -s 1 -d -1 -p ack -e 40 -c 2 -a 0 -i 50 -k AGT
+ -t 10.211025983 -s 1 -d 0 -p ack -e 40 -c 2 -a 0 -i 50 -k RTR 
- -t 10.211025983 -s 1 -d 0 -p ack -e 40 -c 2 -a 0 -i 50 -k RTR
h -t 10.211025983 -s 1 -d 0 -p ack -e 40 -c 2 -a 0 -i 50 -k RTR
r -t 10.212871397 -s 0 -d 0 -p ack -e 40 -c 2 -a 0 -i 43 -k AGT
+ -t 10.212871397 -s 0 -d -1 -p tcp -e 1040 -c 2 -a 0 -i 51 -k AGT 
- -t 10.212871397 -s 0 -d -1 -p tcp -e 1040 -c 2 -a 0 -i 51 -k AGT
h -t 10.212871397 -s 0 -d -1 -p tcp -e 1040 -c 2 -a 0 -i 51 -k AGT
+ -t 10.212871397 -s 0 -d -1 -p tcp -e 1040 -c 2 -a 0 -i 52 -k AGT 
- -t 10.212871397 -s 0 -d -1 -p tcp -e 1040 -c 2 -a 0 -i 52 -k AGT
h -t 10.212871397 -s 0 -d -1 -p tcp -e 1040 -c 2 -a 0 -i 52 -k AGT
+ -t 10.212871397 -s 0 -d 1 -p tcp -e 1040 -c 2 -a 0 -i 51 -k RTR 
- -t 10.212871397 -s 0 -d 1 -p tcp -e 1040 -c 2 -a 0 -i 51 -k RTR
h -t 10.212871397 -s 0 -d 1 -p tcp -e 1040 -c 2 -a 0 -i 51 -k RTR
+ -t 10.212871397 -s 0 -d 1 -p tcp -e 1040 -c 2 -a 0 -i 52 -k RTR 
- -t 10.212871397 -s 0 -d 1 -p tcp -e 1040 -c 2 -a 0 -i 52 -k RTR
h -t 10.212871397 -s 0 -d 1 -p tcp -e 1040 -c 2 -a 0 -i 52 -k RTR
r -t 10.214977283 -s 0 -d 0 -p ack -e 40 -c 2 -a 0 -i 50 -k AGT
+ -t 10.214977283 -s 0 -d -1 -p tcp -e 1040 -c 2 -a 0 -i 53 -k AGT 
- -t 10.214977283 -s 0 -d -1 -p tcp -e 1040 -c 2 -a 0 -i 53 -k AGT
h -t 10.214977283 -s 0 -d -1 -p tcp -e 1040 -c 2 -a 0 -i 53 -k AGT
+ -t 10.214977283 -s 0 -d -1 -p tcp -e 1040 -c 2 -a 0 -i 54 -k AGT 
- -t 10.214977283 -s 0 -d -1 -p tcp -e 1040 -c 2 -a 0 -i 54 -k AGT
h -t 10.214977283 -s 0 -d -1 -p tcp -e 1040 -c 2 -a 0 -i 54 -k AGT
+ -t 10.214977283 -s 0 -d 1 -p tcp -e 1040 -c 2 -a 0 -i 53 -k RTR 
- -t 10.214977283 -s 0 -d 1 -p tcp -e 1040 -c 2 -a 0 -i 53 -k RTR
h -t 10.214977283 -s 0 -d 1 -p tcp -e 1040 -c 2 -a 0 -i 53 -k RTR
+ -t 10.214977283 -s 0 -d 1 -p tcp -e 1040 -c 2 -a 0 -i 54 -k RTR 
- -t 10.214977283 -s 0 -d 1 -p tcp -e 1040 -c 2 -a 0 -i 54 -k RTR
h -t 10.214977283 -s 0 -d 1 -p tcp -e 1040 -c 2 -a 0 -i 54 -k RTR
r -t 10.225022697 -s 1 -d 1 -p tcp -e 1040 -c 2 -a 0 -i 27 -k AGT
+ -t 10.225022697 -s 1 -d -1 -p ack -e 40 -c 2 -a 0 -i 55 -k AGT 
- -t 10.225022697 -s 1 -d -1 -p ack -e 40 -c 2 -a 0 -i 55 -k AGT
h -t 10.225022697 -s 1 -d -1 -p ack -e 40 -c 2 -a 0 -i 55 -k AGT
+ -t 10.225022697 -s 1 -d 0 -p ack -e 40 -c 2 -a 0 -i 55 -k RTR 
- -t 10.225022697 -s 1 -d 0 -p ack -e 40 -c 2 -a 0 -i 55 -k RTR
h -t 10.225022697 -s 1 -d 0 -p ack -e 40 -c 2 -a 0 -i 55 -k RTR
r -t 10.227128111 -s 0 -d 0 -p ack -e 40 -c 2 -a 0 -i 55 -k AGT
+ -t 10.227128111 -s 0 -d -1 -p tcp -e 1040 -c 2 -a 0 -i 56 -k AGT 
- -t 10.227128111 -s 0 -d -1 -p tcp -e 1040 -c 2 -a 0 -i 56 -k AGT
h -t 10.227128111 -s 0 -d -1 -p tcp -e 1040 -c 2 -a 0 -i 56 -k AGT
+ -t 10.227128111 -s 0 -d -1 -p tcp -e 1040 -c 2 -a 0 -i 57 -k AGT 
- -t 10.227128111 -s 0 -d -1 -p tcp -e 1040 -c 2 -a 0 -i 57 -k AGT
h -t 10.227128111 -s 0 -d -1 -p tcp -e 1040 -c 2 -a 0 -i 57 -k AGT
+ -t 10.227128111 -s 0 -d 1 -p tcp -e 1040 -c 2 -a 0 -i 56 -k RTR 
- -t 10.227128111 -s 0 -d 1 -p tcp -e 1040 -c 2 -a 0 -i 56 -k RTR
h -t 10.227128111 -s 0 -d 1 -p tcp -e 1040 -c 2 -a 0 -i 56 -k RTR
+ -t 10.227128111 -s 0 -d 1 -p tcp -e 1040 -c 2 -a 0 -i 57 -k RTR 
- -t 10.227128111 -s 0 -d 1 -p tcp -e 1040 -c 2 -a 0 -i 57 -k RTR
h -t 10.227128111 -s 0 -d 1 -p tcp -e 1040 -c 2 -a 0 -i 57 -k RTR
r -t 10.237153525 -s 1 -d 1 -p tcp -e 1040 -c 2 -a 0 -i 30 -k AGT
+ -t 10.237153525 -s 1 -d -1 -p ack -e 40 -c 2 -a 0 -i 58 -k AGT 
- -t 10.237153525 -s 1 -d -1 -p ack -e 40 -c 2 -a 0 -i 58 -k AGT
h -t 10.237153525 -s 1 -d -1 -p ack -e 40 -c 2 -a 0 -i 58 -k AGT
+ -t 10.237153525 -s 1 -d 0 -p ack -e 40 -c 2 -a 0 -i 58 -k RTR 
- -t 10.237153525 -s 1 -d 0 -p ack -e 40 -c 2 -a 0 -i 58 -k RTR
h -t 10.237153525 -s 1 -d 0 -p ack -e 40 -c 2 -a 0 -i 58 -k RTR
r -t 10.239198939 -s 0 -d 0 -p ack -e 40 -c 2 -a 0 -i 58 -k AGT
+ -t 10.239198939 -s 0 -d -1 -p tcp -e 1040 -c 2 -a 0 -i 59 -k AGT 
- -t 10.239198939 -s 0 -d -1 -p tcp -e 1040 -c 2 -a 0 -i 59 -k AGT
h -t 10.239198939 -s 0 -d -1 -p tcp -e 1040 -c 2 -a 0 -i 59 -k AGT
+ -t 10.239198939 -s 0 -d 1 -p tcp -e 1040 -c 2 -a 0 -i 59 -k RTR 
- -t 10.239198939 -s 0 -d 1 -p tcp -e 1040 -c 2 -a 0 -i 59 -k RTR
h -t 10.239198939 -s 0 -d 1 -p tcp -e 1040 -c 2 -a 0 -i 59 -k RTR
r -t 10.249124354 -s 1 -d 1 -p tcp -e 1040 -c 2 -a 0 -i 31 -k AGT
+ -t 10.249124354 -s 1 -d -1 -p ack -e 40 -c 2 -a 0 -i 60 -k AGT 
- -t 10.249124354 -s 1 -d -1 -p ack -e 40 -c 2 -a 0 -i 60 -k AGT
h -t 10.249124354 -s 1 -d -1 -p ack -e 40 -c 2 -a 0 -i 60 -k AGT
+ -t 10.249124354 -s 1 -d 0 -p ack -e 40 -c 2 -a 0 -i 60 -k RTR 
- -t 10.249124354 -s 1 -d 0 -p ack -e 40 -c 2 -a 0 -i 60 -k RTR
h -t 10.249124354 -s 1 -d 0 -p ack -e 40 -c 2 -a 0 -i 60 -k RTR
r -t 10.251029768 -s 0 -d 0 -p ack -e 40 -c 2 -a 0 -i 60 -k AGT
+ -t 10.251029768 -s 0 -d -1 -p tcp -e 1040 -c 2 -a 0 -i 61 -k AGT 
- -t 10.251029768 -s 0 -d -1 -p tcp -e 1040 -c 2 -a 0 -i 61 -k AGT
h -t 10.251029768 -s 0 -d -1 -p tcp -e 1040 -c 2 -a 0 -i 61 -k AGT
+ -t 10.251029768 -s 0 -d 1 -p tcp -e 1040 -c 2 -a 0 -i 61 -k RTR 
- -t 10.251029768 -s 0 -d 1 -p tcp -e 1040 -c 2 -a 0 -i 61 -k RTR
h -t 10.251029768 -s 0 -d 1 -p tcp -e 1040 -c 2 -a 0 -i 61 -k RTR
r -t 10.260995182 -s 1 -d 1 -p tcp -e 1040 -c 2 -a 0 -i 33 -k AGT
+ -t 10.260995182 -s 1 -d -1 -p ack -e 40 -c 2 -a 0 -i 62 -k AGT 
- -t 10.260995182 -s 1 -d -1 -p ack -e 40 -c 2 -a 0 -i 62 -k AGT
h -t 10.260995182 -s 1 -d -1 -p ack -e 40 -c 2 -a 0 -i 62 -k AGT
+ -t 10.260995182 -s 1 -d 0 -p ack -e 40 -c 2 -a 0 -i 62 -k RTR 
- -t 10.260995182 -s 1 -d 0 -p ack -e 40 -c 2 -a 0 -i 62 -k RTR
h -t 10.260995182 -s 1 -d 0 -p ack -e 40 -c 2 -a 0 -i 62 -k RTR
r -t 10.270821068 -s 1 -d 1 -p tcp -e 1040 -c 2 -a 0 -i 34 -k AGT
+ -t 10.270821068 -s 1 -d -1 -p ack -e 40 -c 2 -a 0 -i 63 -k AGT 
- -t 10.270821068 -s 1 -d -1 -p ack -e 40 -c 2 -a 0 -i 63 -k AGT
h -t 10.270821068 -s 1 -d -1 -p ack -e 40 -c 2 -a 0 -i 63 -k AGT
+ -t 10.270821068 -s 1 -d 0 -p ack -e 40 -c 2 -a 0 -i 63 -k RTR 
- -t 10.270821068 -s 1 -d 0 -p ack -e 40 -c 2 -a 0 -i 63 -k RTR
h -t 10.270821068 -s 1 -d 0 -p ack -e 40 -c 2 -a 0 -i 63 -k RTR
r -t 10.280886953 -s 1 -d 1 -p tcp -e 1040 -c 2 -a 0 -i 35 -k AGT
+ -t 10.280886953 -s 1 -d -1 -p ack -e 40 -c 2 -a 0 -i 64 -k AGT 
- -t 10.280886953 -s 1 -d -1 -p ack -e 40 -c 2 -a 0 -i 64 -k AGT
h -t 10.280886953 -s 1 -d -1 -p ack -e 40 -c 2 -a 0 -i 64 -k AGT
+ -t 10.280886953 -s 1 -d 0 -p ack -e 40 -c 2 -a 0 -i 64 -k RTR 
- -t 10.280886953 -s 1 -d 0 -p ack -e 40 -c 2 -a 0 -i 64 -k RTR
h -t 10.280886953 -s 1 -d 0 -p ack -e 40 -c 2 -a 0 -i 64 -k RTR
r -t 10.282772368 -s 0 -d 0 -p ack -e 40 -c 2 -a 0 -i 62 -k AGT
+ -t 10.282772368 -s 0 -d -1 -p tcp -e 1040 -c 2 -a 0 -i 65 -k AGT 
- -t 10.282772368 -s 0 -d -1 -p tcp -e 1040 -c 2 -a 0 -i 65 -k AGT
h -t 10.282772368 -s 0 -d -1 -p tcp -e 1040 -c 2 -a 0 -i 65 -k AGT
+ -t 10.282772368 -s 0 -d 1 -p tcp -e 1040 -c 2 -a 0 -i 65 -k RTR 
- -t 10.282772368 -s 0 -d 1 -p tcp -e 1040 -c 2 -a 0 -i 65 -k RTR
h -t 10.282772368 -s 0 -d 1 -p tcp -e 1040 -c 2 -a 0 -i 65 -k RTR
r -t 10.292857782 -s 1 -d 1 -p tcp -e 1040 -c 2 -a 0 -i 36 -k AGT
+ -t 10.292857782 -s 1 -d -1 -p ack -e 40 -c 2 -a 0 -i 66 -k AGT 
- -t 10.292857782 -s 1 -d -1 -p ack -e 40 -c 2 -a 0 -i 66 -k AGT