s 1.000000000 _8_ AGT  --- 0 tcp 40 [0 0 0 0] ------- [8:0 24:0 32 0] [0 0] 0 0
r 1.000000000 _8_ RTR  --- 0 tcp 40 [0 0 0 0] ------- [8:0 24:0 32 0] [0 0] 0 0
s 1.000000000 _8_ RTR  --- 0 AODV 48 [0 0 0 0] ------- [8:255 -1:255 30 0] [0x2 1 1 [24 0] [8 4]] (REQUEST)
r 1.000988103 _3_ RTR  --- 0 AODV 48 [0 ffffffff 8 800] ------- [8:255 -1:255 30 0] [0x2 1 1 [24 0] [8 4]] (REQUEST)
r 1.000988254 _9_ RTR  --- 0 AODV 48 [0 ffffffff 8 800] ------- [8:255 -1:255 30 0] [0x2 1 1 [24 0] [8 4]] (REQUEST)
r 1.000988298 _25_ RTR  --- 0 AODV 48 [0 ffffffff 8 800] ------- [8:255 -1:255 30 0] [0x2 1 1 [24 0] [8 4]] (REQUEST)
r 1.000988469 _22_ RTR  --- 0 AODV 48 [0 ffffffff 8 800] ------- [8:255 -1:255 30 0] [0x2 1 1 [24 0] [8 4]] (REQUEST)
r 1.000988675 _18_ RTR  --- 0 AODV 48 [0 ffffffff 8 800] ------- [8:255 -1:255 30 0] [0x2 1 1 [24 0] [8 4]] (REQUEST)
r 1.000988747 _4_ RTR  --- 0 AODV 48 [0 ffffffff 8 800] ------- [8:255 -1:255 30 0] [0x2 1 1 [24 0] [8 4]] (REQUEST)
s 1.001869330 _3_ RTR  --- 0 AODV 48 [0 ffffffff 8 800] ------- [3:255 -1:255 29 0] [0x2 2 1 [24 0] [8 4]] (REQUEST)
r 1.003177432 _8_ RTR  --- 0 AODV 48 [0 ffffffff 3 800] ------- [3:255 -1:255 29 0] [0x2 2 1 [24 0] [8 4]] (REQUEST)
r 1.003177581 _9_ RTR  --- 0 AODV 48 [0 ffffffff 3 800] ------- [3:255 -1:255 29 0] [0x2 2 1 [24 0] [8 4]] (REQUEST)
r 1.003177714 _25_ RTR  --- 0 AODV 48 [0 ffffffff 3 800] ------- [3:255 -1:255 29 0] [0x2 2 1 [24 0] [8 4]] (REQUEST)
r 1.003177823 _22_ RTR  --- 0 AODV 48 [0 ffffffff 3 800] ------- [3:255 -1:255 29 0] [0x2 2 1 [24 0] [8 4]] (REQUEST)
r 1.003177933 _18_ RTR  --- 0 AODV 48 [0 ffffffff 3 800] ------- [3:255 -1:255 29 0] [0x2 2 1 [24 0] [8 4]] (REQUEST)
r 1.003178119 _4_ RTR  --- 0 AODV 48 [0 ffffffff 3 800] ------- [3:255 -1:255 29 0] [0x2 2 1 [24 0] [8 4]] (REQUEST)
s 1.003334765 _4_ RTR  --- 0 AODV 48 [0 ffffffff 8 800] ------- [4:255 -1:255 29 0] [0x2 2 1 [24 0] [8 4]] (REQUEST)
s 1.004118087 _22_ RTR  --- 0 AODV 48 [0 ffffffff 8 800] ------- [22:255 -1:255 29 0] [0x2 2 1 [24 0] [8 4]] (REQUEST)
r 1.004523005 _14_ RTR  --- 0 AODV 48 [0 ffffffff 4 800] ------- [4:255 -1:255 29 0] [0x2 2 1 [24 0] [8 4]] (REQUEST)
r 1.004523090 _6_ RTR  --- 0 AODV 48 [0 ffffffff 4 800] ------- [4:255 -1:255 29 0] [0x2 2 1 [24 0] [8 4]] (REQUEST)
r 1.004523280 _25_ RTR  --- 0 AODV 48 [0 ffffffff 4 800] ------- [4:255 -1:255 29 0] [0x2 2 1 [24 0] [8 4]] (REQUEST)
r 1.004523319 _9_ RTR  --- 0 AODV 48 [0 ffffffff 4 800] ------- [4:255 -1:255 29 0] [0x2 2 1 [24 0] [8 4]] (REQUEST)
r 1.004523385 _27_ RTR  --- 0 AODV 48 [0 ffffffff 4 800] ------- [4:255 -1:255 29 0] [0x2 2 1 [24 0] [8 4]] (REQUEST)
r 1.004523512 _8_ RTR  --- 0 AODV 48 [0 ffffffff 4 800] ------- [4:255 -1:255 29 0] [0x2 2 1 [24 0] [8 4]] (REQUEST)
r 1.004523554 _3_ RTR  --- 0 AODV 48 [0 ffffffff 4 800] ------- [4:255 -1:255 29 0] [0x2 2 1 [24 0] [8 4]] (REQUEST)
r 1.004523568 _18_ RTR  --- 0 AODV 48 [0 ffffffff 4 800] ------- [4:255 -1:255 29 0] [0x2 2 1 [24 0] [8 4]] (REQUEST)
s 1.005399988 _9_ RTR  --- 0 AODV 48 [0 ffffffff 8 800] ------- [9:255 -1:255 29 0] [0x2 2 1 [24 0] [8 4]] (REQUEST)
s 1.005661172 _6_ RTR  --- 0 AODV 48 [0 ffffffff 4 800] ------- [6:255 -1:255 28 0] [0x2 3 1 [24 0] [8 4]] (REQUEST)
r 1.005826415 _8_ RTR  --- 0 AODV 48 [0 ffffffff 16 800] ------- [22:255 -1:255 29 0] [0x2 2 1 [24 0] [8 4]] (REQUEST)
r 1.005826439 _3_ RTR  --- 0 AODV 48 [0 ffffffff 16 800] ------- [22:255 -1:255 29 0] [0x2 2 1 [24 0] [8 4]] (REQUEST)
r 1.005826616 _25_ RTR  --- 0 AODV 48 [0 ffffffff 16 800] ------- [22:255 -1:255 29 0] [0x2 2 1 [24 0] [8 4]] (REQUEST)
r 1.005826668 _9_ RTR  --- 0 AODV 48 [0 ffffffff 16 800] ------- [22:255 -1:255 29 0] [0x2 2 1 [24 0] [8 4]] (REQUEST)
r 1.006884920 _3_ RTR  --- 0 AODV 48 [0 ffffffff 9 800] ------- [9:255 -1:255 29 0] [0x2 2 1 [24 0] [8 4]] (REQUEST)
r 1.006884922 _8_ RTR  --- 0 AODV 48 [0 ffffffff 9 800] ------- [9:255 -1:255 29 0] [0x2 2 1 [24 0] [8 4]] (REQUEST)
r 1.006884966 _25_ RTR  --- 0 AODV 48 [0 ffffffff 9 800] ------- [9:255 -1:255 29 0] [0x2 2 1 [24 0] [8 4]] (REQUEST)
r 1.006885156 _18_ RTR  --- 0 AODV 48 [0 ffffffff 9 800] ------- [9:255 -1:255 29 0] [0x2 2 1 [24 0] [8 4]] (REQUEST)
r 1.006885222 _4_ RTR  --- 0 AODV 48 [0 ffffffff 9 800] ------- [9:255 -1:255 29 0] [0x2 2 1 [24 0] [8 4]] (REQUEST)
r 1.006885331 _6_ RTR  --- 0 AODV 48 [0 ffffffff 9 800] ------- [9:255 -1:255 29 0] [0x2 2 1 [24 0] [8 4]] (REQUEST)
r 1.006885391 _22_ RTR  --- 0 AODV 48 [0 ffffffff 9 800] ------- [9:255 -1:255 29 0] [0x2 2 1 [24 0] [8 4]] (REQUEST)
r 1.006885462 _14_ RTR  --- 0 AODV 48 [0 ffffffff 9 800] ------- [9:255 -1:255 29 0] [0x2 2 1 [24 0] [8 4]] (REQUEST)
r 1.008263656 _4_ RTR  --- 0 AODV 48 [0 ffffffff 6 800] ------- [6:255 -1:255 28 0] [0x2 3 1 [24 0] [8 4]] (REQUEST)
r 1.008263666 _27_ RTR  --- 0 AODV 48 [0 ffffffff 6 800] ------- [6:255 -1:255 28 0] [0x2 3 1 [24 0] [8 4]] (REQUEST)
r 1.008263738 _14_ RTR  --- 0 AODV 48 [0 ffffffff 6 800] ------- [6:255 -1:255 28 0] [0x2 3 1 [24 0] [8 4]] (REQUEST)
r 1.008263994 _9_ RTR  --- 0 AODV 48 [0 ffffffff 6 800] ------- [6:255 -1:255 28 0] [0x2 3 1 [24 0] [8 4]] (REQUEST)
r 1.008264018 _18_ RTR  --- 0 AODV 48 [0 ffffffff 6 800] ------- [6:255 -1:255 28 0] [0x2 3 1 [24 0] [8 4]] (REQUEST)
r 1.008264086 _25_ RTR  --- 0 AODV 48 [0 ffffffff 6 800] ------- [6:255 -1:255 28 0] [0x2 3 1 [24 0] [8 4]] (REQUEST)
s 1.008979853 _25_ RTR  --- 0 AODV 48 [0 ffffffff 8 800] ------- [25:255 -1:255 29 0] [0x2 2 1 [24 0] [8 4]] (REQUEST)
s 1.009153436 _18_ RTR  --- 0 AODV 48 [0 ffffffff 8 800] ------- [18:255 -1:255 29 0] [0x2 2 1 [24 0] [8 4]] (REQUEST)
r 1.010121924 _9_ RTR  --- 0 AODV 48 [0 ffffffff 12 800] ------- [18:255 -1:255 29 0] [0x2 2 1 [24 0] [8 4]] (REQUEST)
r 1.010122039 _3_ RTR  --- 0 AODV 48 [0 ffffffff 12 800] ------- [18:255 -1:255 29 0] [0x2 2 1 [24 0] [8 4]] (REQUEST)
r 1.010122111 _8_ RTR  --- 0 AODV 48 [0 ffffffff 12 800] ------- [18:255 -1:255 29 0] [0x2 2 1 [24 0] [8 4]] (REQUEST)
r 1.010122122 _6_ RTR  --- 0 AODV 48 [0 ffffffff 12 800] ------- [18:255 -1:255 29 0] [0x2 2 1 [24 0] [8 4]] (REQUEST)
r 1.010122218 _25_ RTR  --- 0 AODV 48 [0 ffffffff 12 800] ------- [18:255 -1:255 29 0] [0x2 2 1 [24 0] [8 4]] (REQUEST)
r 1.010122239 _4_ RTR  --- 0 AODV 48 [0 ffffffff 12 800] ------- [18:255 -1:255 29 0] [0x2 2 1 [24 0] [8 4]] (REQUEST)
s 1.010923682 _14_ RTR  --- 0 AODV 48 [0 ffffffff 4 800] ------- [14:255 -1:255 28 0] [0x2 3 1 [24 0] [8 4]] (REQUEST)
r 1.011060516 _8_ RTR  --- 0 AODV 48 [0 ffffffff 19 800] ------- [25:255 -1:255 29 0] [0x2 2 1 [24 0] [8 4]] (REQUEST)
r 1.011060516 _9_ RTR  --- 0 AODV 48 [0 ffffffff 19 800] ------- [25:255 -1:255 29 0] [0x2 2 1 [24 0] [8 4]] (REQUEST)
r 1.011060602 _3_ RTR  --- 0 AODV 48 [0 ffffffff 19 800] ------- [25:255 -1:255 29 0] [0x2 2 1 [24 0] [8 4]] (REQUEST)
r 1.011060733 _4_ RTR  --- 0 AODV 48 [0 ffffffff 19 800] ------- [25:255 -1:255 29 0] [0x2 2 1 [24 0] [8 4]] (REQUEST)
r 1.011060889 _22_ RTR  --- 0 AODV 48 [0 ffffffff 19 800] ------- [25:255 -1:255 29 0] [0x2 2 1 [24 0] [8 4]] (REQUEST)
r 1.011060940 _14_ RTR  --- 0 AODV 48 [0 ffffffff 19 800] ------- [25:255 -1:255 29 0] [0x2 2 1 [24 0] [8 4]] (REQUEST)
r 1.011060973 _6_ RTR  --- 0 AODV 48 [0 ffffffff 19 800] ------- [25:255 -1:255 29 0] [0x2 2 1 [24 0] [8 4]] (REQUEST)
r 1.011061000 _18_ RTR  --- 0 AODV 48 [0 ffffffff 19 800] ------- [25:255 -1:255 29 0] [0x2 2 1 [24 0] [8 4]] (REQUEST)
r 1.012399180 _4_ RTR  --- 0 AODV 48 [0 ffffffff e 800] ------- [14:255 -1:255 28 0] [0x2 3 1 [24 0] [8 4]] (REQUEST)
r 1.012399346 _6_ RTR  --- 0 AODV 48 [0 ffffffff e 800] ------- [14:255 -1:255 28 0] [0x2 3 1 [24 0] [8 4]] (REQUEST)
r 1.012399526 _27_ RTR  --- 0 AODV 48 [0 ffffffff e 800] ------- [14:255 -1:255 28 0] [0x2 3 1 [24 0] [8 4]] (REQUEST)
r 1.012399549 _20_ RTR  --- 0 AODV 48 [0 ffffffff e 800] ------- [14:255 -1:255 28 0] [0x2 3 1 [24 0] [8 4]] (REQUEST)
r 1.012399660 _28_ RTR  --- 0 AODV 48 [0 ffffffff e 800] ------- [14:255 -1:255 28 0] [0x2 3 1 [24 0] [8 4]] (REQUEST)
r 1.012399662 _25_ RTR  --- 0 AODV 48 [0 ffffffff e 800] ------- [14:255 -1:255 28 0] [0x2 3 1 [24 0] [8 4]] (REQUEST)
r 1.012399734 _9_ RTR  --- 0 AODV 48 [0 ffffffff e 800] ------- [14:255 -1:255 28 0] [0x2 3 1 [24 0] [8 4]] (REQUEST)
s 1.013120662 _27_ RTR  --- 0 AODV 48 [0 ffffffff 4 800] ------- [27:255 -1:255 28 0] [0x2 3 1 [24 0] [8 4]] (REQUEST)
r 1.014428996 _6_ RTR  --- 0 AODV 48 [0 ffffffff 1b 800] ------- [27:255 -1:255 28 0] [0x2 3 1 [24 0] [8 4]] (REQUEST)
r 1.014429248 _14_ RTR  --- 0 AODV 48 [0 ffffffff 1b 800] ------- [27:255 -1:255 28 0] [0x2 3 1 [24 0] [8 4]] (REQUEST)
r 1.014429282 _4_ RTR  --- 0 AODV 48 [0 ffffffff 1b 800] ------- [27:255 -1:255 28 0] [0x2 3 1 [24 0] [8 4]] (REQUEST)
r 1.014429441 _5_ RTR  --- 0 AODV 48 [0 ffffffff 1b 800] ------- [27:255 -1:255 28 0] [0x2 3 1 [24 0] [8 4]] (REQUEST)
r 1.014429442 _20_ RTR  --- 0 AODV 48 [0 ffffffff 1b 800] ------- [27:255 -1:255 28 0] [0x2 3 1 [24 0] [8 4]] (REQUEST)
r 1.014429445 _28_ RTR  --- 0 AODV 48 [0 ffffffff 1b 800] ------- [27:255 -1:255 28 0] [0x2 3 1 [24 0] [8 4]] (REQUEST)
s 1.014571255 _28_ RTR  --- 0 AODV 48 [0 ffffffff e 800] ------- [28:255 -1:255 27 0] [0x2 4 1 [24 0] [8 4]] (REQUEST)
r 1.015879405 _20_ RTR  --- 0 AODV 48 [0 ffffffff 1c 800] ------- [28:255 -1:255 27 0] [0x2 4 1 [24 0] [8 4]] (REQUEST)
r 1.015879924 _24_ RTR  --- 0 AODV 48 [0 ffffffff 1c 800] ------- [28:255 -1:255 27 0] [0x2 4 1 [24 0] [8 4]] (REQUEST)
s 1.015879924 _24_ RTR  --- 0 AODV 44 [0 0 0 0] ------- [24:255 8:255 30 28] [0x4 1 [24 4] 10.000000] (REPLY)
r 1.015879975 _14_ RTR  --- 0 AODV 48 [0 ffffffff 1c 800] ------- [28:255 -1:255 27 0] [0x2 4 1 [24 0] [8 4]] (REQUEST)
r 1.015880038 _27_ RTR  --- 0 AODV 48 [0 ffffffff 1c 800] ------- [28:255 -1:255 27 0] [0x2 4 1 [24 0] [8 4]] (REQUEST)
r 1.020282610 _28_ RTR  --- 0 AODV 44 [13a 1c 18 800] ------- [24:255 8:255 30 28] [0x4 1 [24 4] 10.000000] (REPLY)
f 1.020282610 _28_ RTR  --- 0 AODV 44 [13a 1c 18 800] ------- [24:255 8:255 29 14] [0x4 2 [24 4] 10.000000] (REPLY)
s 1.020797801 _20_ RTR  --- 0 AODV 48 [0 ffffffff e 800] ------- [20:255 -1:255 27 0] [0x2 4 1 [24 0] [8 4]] (REQUEST)
s 1.021202930 _5_ RTR  --- 0 AODV 48 [0 ffffffff 1b 800] ------- [5:255 -1:255 27 0] [0x2 4 1 [24 0] [8 4]] (REQUEST)
r 1.024288792 _28_ RTR  --- 0 AODV 48 [0 ffffffff 14 800] ------- [20:255 -1:255 27 0] [0x2 4 1 [24 0] [8 4]] (REQUEST)
r 1.024289251 _14_ RTR  --- 0 AODV 48 [0 ffffffff 14 800] ------- [20:255 -1:255 27 0] [0x2 4 1 [24 0] [8 4]] (REQUEST)
r 1.024289422 _27_ RTR  --- 0 AODV 48 [0 ffffffff 14 800] ------- [20:255 -1:255 27 0] [0x2 4 1 [24 0] [8 4]] (REQUEST)
r 1.024289461 _24_ RTR  --- 0 AODV 48 [0 ffffffff 14 800] ------- [20:255 -1:255 27 0] [0x2 4 1 [24 0] [8 4]] (REQUEST)
r 1.026192953 _14_ RTR  --- 0 AODV 44 [13a e 1c 800] ------- [24:255 8:255 29 14] [0x4 2 [24 4] 10.000000] (REPLY)
f 1.026192953 _14_ RTR  --- 0 AODV 44 [13a e 1c 800] ------- [24:255 8:255 28 4] [0x4 3 [24 4] 10.000000] (REPLY)
r 1.031102777 _24_ RTR  --- 0 AODV 48 [0 ffffffff 5 800] ------- [5:255 -1:255 27 0] [0x2 4 1 [24 0] [8 4]] (REQUEST)
r 1.031102936 _10_ RTR  --- 0 AODV 48 [0 ffffffff 5 800] ------- [5:255 -1:255 27 0] [0x2 4 1 [24 0] [8 4]] (REQUEST)
r 1.031102937 _26_ RTR  --- 0 AODV 48 [0 ffffffff 5 800] ------- [5:255 -1:255 27 0] [0x2 4 1 [24 0] [8 4]] (REQUEST)
r 1.031102962 _27_ RTR  --- 0 AODV 48 [0 ffffffff 5 800] ------- [5:255 -1:255 27 0] [0x2 4 1 [24 0] [8 4]] (REQUEST)
r 1.031102998 _11_ RTR  --- 0 AODV 48 [0 ffffffff 5 800] ------- [5:255 -1:255 27 0] [0x2 4 1 [24 0] [8 4]] (REQUEST)
r 1.033050171 _4_ RTR  --- 0 AODV 44 [13a 4 e 800] ------- [24:255 8:255 28 4] [0x4 3 [24 4] 10.000000] (REPLY)
f 1.033050171 _4_ RTR  --- 0 AODV 44 [13a 4 e 800] ------- [24:255 8:255 27 8] [0x4 4 [24 4] 10.000000] (REPLY)
s 1.033721178 _10_ RTR  --- 0 AODV 48 [0 ffffffff 5 800] ------- [10:255 -1:255 26 0] [0x2 5 1 [24 0] [8 4]] (REQUEST)
r 1.034669438 _15_ RTR  --- 0 AODV 48 [0 ffffffff a 800] ------- [10:255 -1:255 26 0] [0x2 5 1 [24 0] [8 4]] (REQUEST)
r 1.034669900 _19_ RTR  --- 0 AODV 48 [0 ffffffff a 800] ------- [10:255 -1:255 26 0] [0x2 5 1 [24 0] [8 4]] (REQUEST)
s 1.035359871 _11_ RTR  --- 0 AODV 48 [0 ffffffff 5 800] ------- [11:255 -1:255 26 0] [0x2 5 1 [24 0] [8 4]] (REQUEST)
r 1.036547981 _23_ RTR  --- 0 AODV 48 [0 ffffffff b 800] ------- [11:255 -1:255 26 0] [0x2 5 1 [24 0] [8 4]] (REQUEST)
r 1.036548212 _26_ RTR  --- 0 AODV 48 [0 ffffffff b 800] ------- [11:255 -1:255 26 0] [0x2 5 1 [24 0] [8 4]] (REQUEST)
r 1.036548537 _24_ RTR  --- 0 AODV 48 [0 ffffffff b 800] ------- [11:255 -1:255 26 0] [0x2 5 1 [24 0] [8 4]] (REQUEST)
s 1.036651334 _26_ RTR  --- 0 AODV 48 [0 ffffffff 5 800] ------- [26:255 -1:255 26 0] [0x2 5 1 [24 0] [8 4]] (REQUEST)
s 1.036736778 _15_ RTR  --- 0 AODV 48 [0 ffffffff a 800] ------- [15:255 -1:255 25 0] [0x2 6 1 [24 0] [8 4]] (REQUEST)
s 1.037049315 _23_ RTR  --- 0 AODV 48 [0 ffffffff b 800] ------- [23:255 -1:255 25 0] [0x2 6 1 [24 0] [8 4]] (REQUEST)
r 1.037719675 _11_ RTR  --- 0 AODV 48 [0 ffffffff 1a 800] ------- [26:255 -1:255 26 0] [0x2 5 1 [24 0] [8 4]] (REQUEST)
r 1.037719706 _24_ RTR  --- 0 AODV 48 [0 ffffffff 1a 800] ------- [26:255 -1:255 26 0] [0x2 5 1 [24 0] [8 4]] (REQUEST)
r 1.037719785 _23_ RTR  --- 0 AODV 48 [0 ffffffff 1a 800] ------- [26:255 -1:255 26 0] [0x2 5 1 [24 0] [8 4]] (REQUEST)
r 1.037720089 _5_ RTR  --- 0 AODV 48 [0 ffffffff 1a 800] ------- [26:255 -1:255 26 0] [0x2 5 1 [24 0] [8 4]] (REQUEST)
r 1.037882402 _8_ RTR  --- 0 AODV 44 [13a 8 4 800] ------- [24:255 8:255 27 8] [0x4 4 [24 4] 10.000000] (REPLY)
s 1.037882402 _8_ RTR  --- 0 tcp 40 [0 0 0 0] ------- [8:0 24:0 30 4] [0 0] 0 0
r 1.038717895 _11_ RTR  --- 0 AODV 48 [0 ffffffff 17 800] ------- [23:255 -1:255 25 0] [0x2 6 1 [24 0] [8 4]] (REQUEST)
r 1.038718236 _26_ RTR  --- 0 AODV 48 [0 ffffffff 17 800] ------- [23:255 -1:255 25 0] [0x2 6 1 [24 0] [8 4]] (REQUEST)
r 1.038718552 _24_ RTR  --- 0 AODV 48 [0 ffffffff 17 800] ------- [23:255 -1:255 25 0] [0x2 6 1 [24 0] [8 4]] (REQUEST)
r 1.039908644 _4_ RTR  --- 0 tcp 40 [13a 4 8 800] ------- [8:0 24:0 30 4] [0 0] 1 0
f 1.039908644 _4_ RTR  --- 0 tcp 40 [13a 4 8 800] ------- [8:0 24:0 29 14] [0 0] 1 0
r 1.040181449 _10_ RTR  --- 0 AODV 48 [0 ffffffff f 800] ------- [15:255 -1:255 25 0] [0x2 6 1 [24 0] [8 4]] (REQUEST)
r 1.040181793 _19_ RTR  --- 0 AODV 48 [0 ffffffff f 800] ------- [15:255 -1:255 25 0] [0x2 6 1 [24 0] [8 4]] (REQUEST)
s 1.041619272 _19_ RTR  --- 0 AODV 48 [0 ffffffff a 800] ------- [19:255 -1:255 25 0] [0x2 6 1 [24 0] [8 4]] (REQUEST)
r 1.041813365 _14_ RTR  --- 0 tcp 40 [13a e 4 800] ------- [8:0 24:0 29 14] [0 0] 2 0
f 1.041813365 _14_ RTR  --- 0 tcp 40 [13a e 4 800] ------- [8:0 24:0 28 28] [0 0] 2 0
r 1.043167876 _15_ RTR  --- 0 AODV 48 [0 ffffffff 13 800] ------- [19:255 -1:255 25 0] [0x2 6 1 [24 0] [8 4]] (REQUEST)
r 1.043167965 _7_ RTR  --- 0 AODV 48 [0 ffffffff 13 800] ------- [19:255 -1:255 25 0] [0x2 6 1 [24 0] [8 4]] (REQUEST)
r 1.043167994 _10_ RTR  --- 0 AODV 48 [0 ffffffff 13 800] ------- [19:255 -1:255 25 0] [0x2 6 1 [24 0] [8 4]] (REQUEST)
r 1.043759527 _28_ RTR  --- 0 tcp 40 [13a 1c e 800] ------- [8:0 24:0 28 28] [0 0] 3 0
f 1.043759527 _28_ RTR  --- 0 tcp 40 [13a 1c e 800] ------- [8:0 24:0 27 24] [0 0] 3 0
r 1.046185535 _24_ AGT  --- 0 tcp 40 [13a 18 1c 800] ------- [8:0 24:0 27 24] [0 0] 4 0
s 1.046185535 _24_ AGT  --- 1 ack 40 [0 0 0 0] ------- [24:0 8:0 32 0] [0 0] 0 0
r 1.046185535 _24_ RTR  --- 1 ack 40 [0 0 0 0] ------- [24:0 8:0 32 0] [0 0] 0 0
s 1.046185535 _24_ RTR  --- 1 ack 40 [0 0 0 0] ------- [24:0 8:0 30 28] [0 0] 0 0
s 1.046728550 _7_ RTR  --- 0 AODV 48 [0 ffffffff 13 800] ------- [7:255 -1:255 24 0] [0x2 7 1 [24 0] [8 4]] (REQUEST)
r 1.047977243 _19_ RTR  --- 0 AODV 48 [0 ffffffff 7 800] ------- [7:255 -1:255 24 0] [0x2 7 1 [24 0] [8 4]] (REQUEST)
r 1.047977303 _13_ RTR  --- 0 AODV 48 [0 ffffffff 7 800] ------- [7:255 -1:255 24 0] [0x2 7 1 [24 0] [8 4]] (REQUEST)
r 1.048551543 _28_ RTR  --- 1 ack 40 [13a 1c 18 800] ------- [24:0 8:0 30 28] [0 0] 1 0
f 1.048551543 _28_ RTR  --- 1 ack 40 [13a 1c 18 800] ------- [24:0 8:0 29 14] [0 0] 1 0
r 1.050417705 _14_ RTR  --- 1 ack 40 [13a e 1c 800] ------- [24:0 8:0 29 14] [0 0] 2 0
f 1.050417705 _14_ RTR  --- 1 ack 40 [13a e 1c 800] ------- [24:0 8:0 28 4] [0 0] 2 0
r 1.052462426 _4_ RTR  --- 1 ack 40 [13a 4 e 800] ------- [24:0 8:0 28 4] [0 0] 3 0
f 1.052462426 _4_ RTR  --- 1 ack 40 [13a 4 e 800] ------- [24:0 8:0 27 8] [0 0] 3 0
s 1.053438533 _13_ RTR  --- 0 AODV 48 [0 ffffffff 7 800] ------- [13:255 -1:255 23 0] [0x2 8 1 [24 0] [8 4]] (REQUEST)
r 1.054448668 _8_ AGT  --- 1 ack 40 [13a 8 4 800] ------- [24:0 8:0 27 8] [0 0] 4 0
s 1.054448668 _8_ AGT  --- 2 tcp 1040 [0 0 0 0] ------- [8:0 24:0 32 0] [1 0] 0 0
r 1.054448668 _8_ RTR  --- 2 tcp 1040 [0 0 0 0] ------- [8:0 24:0 32 0] [1 0] 0 0
s 1.054448668 _8_ AGT  --- 3 tcp 1040 [0 0 0 0] ------- [8:0 24:0 32 0] [2 0] 0 0
r 1.054448668 _8_ RTR  --- 3 tcp 1040 [0 0 0 0] ------- [8:0 24:0 32 0] [2 0] 0 0
s 1.054448668 _8_ RTR  --- 2 tcp 1040 [0 0 0 0] ------- [8:0 24:0 30 4] [1 0] 0 0
s 1.054448668 _8_ RTR  --- 3 tcp 1040 [0 0 0 0] ------- [8:0 24:0 30 4] [2 0] 0 0
r 1.054786730 _12_ RTR  --- 0 AODV 48 [0 ffffffff d 800] ------- [13:255 -1:255 23 0] [0x2 8 1 [24 0] [8 4]] (REQUEST)
r 1.054786938 _29_ RTR  --- 0 AODV 48 [0 ffffffff d 800] ------- [13:255 -1:255 23 0] [0x2 8 1 [24 0] [8 4]] (REQUEST)
r 1.054787150 _16_ RTR  --- 0 AODV 48 [0 ffffffff d 800] ------- [13:255 -1:255 23 0] [0x2 8 1 [24 0] [8 4]] (REQUEST)
r 1.054787285 _7_ RTR  --- 0 AODV 48 [0 ffffffff d 800] ------- [13:255 -1:255 23 0] [0x2 8 1 [24 0] [8 4]] (REQUEST)
s 1.058004078 _12_ RTR  --- 0 AODV 48 [0 ffffffff d 800] ------- [12:255 -1:255 22 0] [0x2 9 1 [24 0] [8 4]] (REQUEST)
r 1.059272275 _13_ RTR  --- 0 AODV 48 [0 ffffffff c 800] ------- [12:255 -1:255 22 0] [0x2 9 1 [24 0] [8 4]] (REQUEST)
r 1.059272310 _29_ RTR  --- 0 AODV 48 [0 ffffffff c 800] ------- [12:255 -1:255 22 0] [0x2 9 1 [24 0] [8 4]] (REQUEST)
r 1.059272800 _16_ RTR  --- 0 AODV 48 [0 ffffffff c 800] ------- [12:255 -1:255 22 0] [0x2 9 1 [24 0] [8 4]] (REQUEST)
s 1.063587106 _16_ RTR  --- 0 AODV 48 [0 ffffffff d 800] ------- [16:255 -1:255 22 0] [0x2 9 1 [24 0] [8 4]] (REQUEST)
s 1.063599512 _29_ RTR  --- 0 AODV 48 [0 ffffffff d 800] ------- [29:255 -1:255 22 0] [0x2 9 1 [24 0] [8 4]] (REQUEST)
r 1.064394910 _4_ RTR  --- 2 tcp 1040 [13a 4 8 800] ------- [8:0 24:0 30 4] [1 0] 1 0
f 1.064394910 _4_ RTR  --- 2 tcp 1040 [13a 4 8 800] ------- [8:0 24:0 29 14] [1 0] 1 0
r 1.064867745 _12_ RTR  --- 0 AODV 48 [0 ffffffff 1d 800] ------- [29:255 -1:255 22 0] [0x2 9 1 [24 0] [8 4]] (REQUEST)
r 1.064867917 _13_ RTR  --- 0 AODV 48 [0 ffffffff 1d 800] ------- [29:255 -1:255 22 0] [0x2 9 1 [24 0] [8 4]] (REQUEST)
r 1.064868271 _16_ RTR  --- 0 AODV 48 [0 ffffffff 1d 800] ------- [29:255 -1:255 22 0] [0x2 9 1 [24 0] [8 4]] (REQUEST)
r 1.065946666 _2_ RTR  --- 0 AODV 48 [0 ffffffff 10 800] ------- [16:255 -1:255 22 0] [0x2 9 1 [24 0] [8 4]] (REQUEST)
r 1.065946888 _13_ RTR  --- 0 AODV 48 [0 ffffffff 10 800] ------- [16:255 -1:255 22 0] [0x2 9 1 [24 0] [8 4]] (REQUEST)
r 1.065946993 _12_ RTR  --- 0 AODV 48 [0 ffffffff 10 800] ------- [16:255 -1:255 22 0] [0x2 9 1 [24 0] [8 4]] (REQUEST)
r 1.065947030 _29_ RTR  --- 0 AODV 48 [0 ffffffff 10 800] ------- [16:255 -1:255 22 0] [0x2 9 1 [24 0] [8 4]] (REQUEST)
s 1.070459280 _2_ RTR  --- 0 AODV 48 [0 ffffffff 10 800] ------- [2:255 -1:255 21 0] [0x2 10 1 [24 0] [8 4]] (REQUEST)
r 1.071407675 _16_ RTR  --- 0 AODV 48 [0 ffffffff 2 800] ------- [2:255 -1:255 21 0] [0x2 10 1 [24 0] [8 4]] (REQUEST)
r 1.071407963 _17_ RTR  --- 0 AODV 48 [0 ffffffff 2 800] ------- [2:255 -1:255 21 0] [0x2 10 1 [24 0] [8 4]] (REQUEST)
r 1.074279631 _14_ RTR  --- 2 tcp 1040 [13a e 4 800] ------- [8:0 24:0 29 14] [1 0] 2 0
f 1.074279631 _14_ RTR  --- 2 tcp 1040 [13a e 4 800] ------- [8:0 24:0 28 28] [1 0] 2 0
s 1.075807107 _17_ RTR  --- 0 AODV 48 [0 ffffffff 2 800] ------- [17:255 -1:255 20 0] [0x2 11 1 [24 0] [8 4]] (REQUEST)
r 1.077175789 _2_ RTR  --- 0 AODV 48 [0 ffffffff 11 800] ------- [17:255 -1:255 20 0] [0x2 11 1 [24 0] [8 4]] (REQUEST)
r 1.084405793 _28_ RTR  --- 2 tcp 1040 [13a 1c e 800] ------- [8:0 24:0 28 28] [1 0] 3 0
f 1.084405793 _28_ RTR  --- 2 tcp 1040 [13a 1c e 800] ------- [8:0 24:0 27 24] [1 0] 3 0
r 1.094251801 _24_ AGT  --- 2 tcp 1040 [13a 18 1c 800] ------- [8:0 24:0 27 24] [1 0] 4 0
s 1.094251801 _24_ AGT  --- 4 ack 40 [0 0 0 0] ------- [24:0 8:0 32 0] [1 0] 0 0
r 1.094251801 _24_ RTR  --- 4 ack 40 [0 0 0 0] ------- [24:0 8:0 32 0] [1 0] 0 0
s 1.094251801 _24_ RTR  --- 4 ack 40 [0 0 0 0] ------- [24:0 8:0 30 28] [1 0] 0 0
r 1.107349069 _4_ RTR  --- 3 tcp 1040 [13a 4 8 800] ------- [8:0 24:0 30 4] [2 0] 1 0
f 1.107349069 _4_ RTR  --- 3 tcp 1040 [13a 4 8 800] ------- [8:0 24:0 29 14] [2 0] 1 0
r 1.117353791 _14_ RTR  --- 3 tcp 1040 [13a e 4 800] ------- [8:0 24:0 29 14] [2 0] 2 0
f 1.117353791 _14_ RTR  --- 3 tcp 1040 [13a e 4 800] ------- [8:0 24:0 28 28] [2 0] 2 0
r 1.127359952 _28_ RTR  --- 3 tcp 1040 [13a 1c e 800] ------- [8:0 24:0 28 28] [2 0] 3 0
f 1.127359952 _28_ RTR  --- 3 tcp 1040 [13a 1c e 800] ------- [8:0 24:0 27 24] [2 0] 3 0
r 1.137425960 _24_ AGT  --- 3 tcp 1040 [13a 18 1c 800] ------- [8:0 24:0 27 24] [2 0] 4 0
s 1.137425960 _24_ AGT  --- 5 ack 40 [0 0 0 0] ------- [24:0 8:0 32 0] [2 0] 0 0
r 1.137425960 _24_ RTR  --- 5 ack 40 [0 0 0 0] ------- [24:0 8:0 32 0] [2 0] 0 0
s 1.137425960 _24_ RTR  --- 5 ack 40 [0 0 0 0] ------- [24:0 8:0 30 28] [2 0] 0 0
r 1.147731968 _28_ RTR  --- 4 ack 40 [13a 1c 18 800] ------- [24:0 8:0 30 28] [1 0] 1 0
f 1.147731968 _28_ RTR  --- 4 ack 40 [13a 1c 18 800] ------- [24:0 8:0 29 14] [1 0] 1 0
r 1.149558130 _14_ RTR  --- 4 ack 40 [13a e 1c 800] ------- [24:0 8:0 29 14] [1 0] 2 0
f 1.149558130 _14_ RTR  --- 4 ack 40 [13a e 1c 800] ------- [24:0 8:0 28 4] [1 0] 2 0
r 1.151942852 _4_ RTR  --- 4 ack 40 [13a 4 e 800] ------- [24:0 8:0 28 4] [1 0] 3 0
f 1.151942852 _4_ RTR  --- 4 ack 40 [13a 4 e 800] ------- [24:0 8:0 27 8] [1 0] 3 0
r 1.154349093 _8_ AGT  --- 4 ack 40 [13a 8 4 800] ------- [24:0 8:0 27 8] [1 0] 4 0
s 1.154349093 _8_ AGT  --- 6 tcp 1040 [0 0 0 0] ------- [8:0 24:0 32 0] [3 0] 0 0
r 1.154349093 _8_ RTR  --- 6 tcp 1040 [0 0 0 0] ------- [8:0 24:0 32 0] [3 0] 0 0
s 1.154349093 _8_ AGT  --- 7 tcp 1040 [0 0 0 0] ------- [8:0 24:0 32 0] [4 0] 0 0
r 1.154349093 _8_ RTR  --- 7 tcp 1040 [0 0 0 0] ------- [8:0 24:0 32 0] [4 0] 0 0
s 1.154349093 _8_ RTR  --- 6 tcp 1040 [0 0 0 0] ------- [8:0 24:0 30 4] [3 0] 0 0
s 1.154349093 _8_ RTR  --- 7 tcp 1040 [0 0 0 0] ------- [8:0 24:0 30 4] [4 0] 0 0
r 1.166715335 _4_ RTR  --- 6 tcp 1040 [13a 4 8 800] ------- [8:0 24:0 30 4] [3 0] 1 0
f 1.166715335 _4_ RTR  --- 6 tcp 1040 [13a 4 8 800] ------- [8:0 24:0 29 14] [3 0] 1 0
r 1.176782324 _4_ RTR  --- 7 tcp 1040 [13a 4 8 800] ------- [8:0 24:0 30 4] [4 0] 1 0
f 1.176782324 _4_ RTR  --- 7 tcp 1040 [13a 4 8 800] ------- [8:0 24:0 29 14] [4 0] 1 0
r 1.186867046 _14_ RTR  --- 6 tcp 1040 [13a e 4 800] ------- [8:0 24:0 29 14] [3 0] 2 0
f 1.186867046 _14_ RTR  --- 6 tcp 1040 [13a e 4 800] ------- [8:0 24:0 28 28] [3 0] 2 0
r 1.196852008 _14_ RTR  --- 7 tcp 1040 [13a e 4 800] ------- [8:0 24:0 29 14] [4 0] 2 0
f 1.196852008 _14_ RTR  --- 7 tcp 1040 [13a e 4 800] ------- [8:0 24:0 28 28] [4 0] 2 0
r 1.206878170 _28_ RTR  --- 6 tcp 1040 [13a 1c e 800] ------- [8:0 24:0 28 28] [3 0] 3 0
f 1.206878170 _28_ RTR  --- 6 tcp 1040 [13a 1c e 800] ------- [8:0 24:0 27 24] [3 0] 3 0
r 1.216845052 _28_ RTR  --- 7 tcp 1040 [13a 1c e 800] ------- [8:0 24:0 28 28] [4 0] 3 0
f 1.216845052 _28_ RTR  --- 7 tcp 1040 [13a 1c e 800] ------- [8:0 24:0 27 24] [4 0] 3 0
r 1.227131060 _24_ AGT  --- 6 tcp 1040 [13a 18 1c 800] ------- [8:0 24:0 27 24] [3 0] 4 0
s 1.227131060 _24_ AGT  --- 8 ack 40 [0 0 0 0] ------- [24:0 8:0 32 0] [3 0] 0 0
r 1.227131060 _24_ RTR  --- 8 ack 40 [0 0 0 0] ------- [24:0 8:0 32 0] [3 0] 0 0
s 1.227131060 _24_ RTR  --- 8 ack 40 [0 0 0 0] ------- [24:0 8:0 30 28] [3 0] 0 0
r 1.237497737 _24_ AGT  --- 7 tcp 1040 [13a 18 1c 800] ------- [8:0 24:0 27 24] [4 0] 4 0
s 1.237497737 _24_ AGT  --- 9 ack 40 [0 0 0 0] ------- [24:0 8:0 32 0] [4 0] 0 0
r 1.237497737 _24_ RTR  --- 9 ack 40 [0 0 0 0] ------- [24:0 8:0 32 0] [4 0] 0 0
s 1.237497737 _24_ RTR  --- 9 ack 40 [0 0 0 0] ------- [24:0 8:0 30 28] [4 0] 0 0
r 1.243823745 _28_ RTR  --- 5 ack 40 [13a 1c 18 800] ------- [24:0 8:0 30 28] [2 0] 1 0
f 1.243823745 _28_ RTR  --- 5 ack 40 [13a 1c 18 800] ------- [24:0 8:0 29 14] [2 0] 1 0
r 1.246010422 _28_ RTR  --- 8 ack 40 [13a 1c 18 800] ------- [24:0 8:0 30 28] [3 0] 1 0
f 1.246010422 _28_ RTR  --- 8 ack 40 [13a 1c 18 800] ------- [24:0 8:0 29 14] [3 0] 1 0
r 1.247837100 _28_ RTR  --- 9 ack 40 [13a 1c 18 800] ------- [24:0 8:0 30 28] [4 0] 1 0
f 1.247837100 _28_ RTR  --- 9 ack 40 [13a 1c 18 800] ------- [24:0 8:0 29 14] [4 0] 1 0
r 1.249783261 _14_ RTR  --- 5 ack 40 [13a e 1c 800] ------- [24:0 8:0 29 14] [2 0] 2 0
f 1.249783261 _14_ RTR  --- 5 ack 40 [13a e 1c 800] ------- [24:0 8:0 28 4] [2 0] 2 0
r 1.251910143 _14_ RTR  --- 8 ack 40 [13a e 1c 800] ------- [24:0 8:0 29 14] [3 0] 2 0
f 1.251910143 _14_ RTR  --- 8 ack 40 [13a e 1c 800] ------- [24:0 8:0 28 4] [3 0] 2 0
r 1.253994865 _4_ RTR  --- 5 ack 40 [13a 4 e 800] ------- [24:0 8:0 28 4] [2 0] 3 0
f 1.253994865 _4_ RTR  --- 5 ack 40 [13a 4 e 800] ------- [24:0 8:0 27 8] [2 0] 3 0
r 1.256141107 _8_ AGT  --- 5 ack 40 [13a 8 4 800] ------- [24:0 8:0 27 8] [2 0] 4 0
s 1.256141107 _8_ AGT  --- 10 tcp 1040 [0 0 0 0] ------- [8:0 24:0 32 0] [5 0] 0 0
r 1.256141107 _8_ RTR  --- 10 tcp 1040 [0 0 0 0] ------- [8:0 24:0 32 0] [5 0] 0 0
s 1.256141107 _8_ AGT  --- 11 tcp 1040 [0 0 0 0] ------- [8:0 24:0 32 0] [6 0] 0 0
r 1.256141107 _8_ RTR  --- 11 tcp 1040 [0 0 0 0] ------- [8:0 24:0 32 0] [6 0] 0 0
s 1.256141107 _8_ RTR  --- 10 tcp 1040 [0 0 0 0] ------- [8:0 24:0 30 4] [5 0] 0 0
s 1.256141107 _8_ RTR  --- 11 tcp 1040 [0 0 0 0] ------- [8:0 24:0 30 4] [6 0] 0 0
r 1.266007349 _4_ RTR  --- 10 tcp 1040 [13a 4 8 800] ------- [8:0 24:0 30 4] [5 0] 1 0
f 1.266007349 _4_ RTR  --- 10 tcp 1040 [13a 4 8 800] ------- [8:0 24:0 29 14] [5 0] 1 0
r 1.268062300 _4_ RTR  --- 8 ack 40 [13a 4 e 800] ------- [24:0 8:0 28 4] [3 0] 3 0
f 1.268062300 _4_ RTR  --- 8 ack 40 [13a 4 e 800] ------- [24:0 8:0 27 8] [3 0] 3 0
r 1.278167022 _14_ RTR  --- 10 tcp 1040 [13a e 4 800] ------- [8:0 24:0 29 14] [5 0] 2 0
f 1.278167022 _14_ RTR  --- 10 tcp 1040 [13a e 4 800] ------- [8:0 24:0 28 28] [5 0] 2 0
r 1.279993504 _8_ AGT  --- 8 ack 40 [13a 8 4 800] ------- [24:0 8:0 27 8] [3 0] 4 0
s 1.279993504 _8_ AGT  --- 12 tcp 1040 [0 0 0 0] ------- [8:0 24:0 32 0] [7 0] 0 0
r 1.279993504 _8_ RTR  --- 12 tcp 1040 [0 0 0 0] ------- [8:0 24:0 32 0] [7 0] 0 0
s 1.279993504 _8_ AGT  --- 13 tcp 1040 [0 0 0 0] ------- [8:0 24:0 32 0] [8 0] 0 0
r 1.279993504 _8_ RTR  --- 13 tcp 1040 [0 0 0 0] ------- [8:0 24:0 32 0] [8 0] 0 0
s 1.279993504 _8_ RTR  --- 12 tcp 1040 [0 0 0 0] ------- [8:0 24:0 30 4] [7 0] 0 0
s 1.279993504 _8_ RTR  --- 13 tcp 1040 [0 0 0 0] ------- [8:0 24:0 30 4] [8 0] 0 0
r 1.289879746 _4_ RTR  --- 11 tcp 1040 [13a 4 8 800] ------- [8:0 24:0 30 4] [6 0] 1 0
f 1.289879746 _4_ RTR  --- 11 tcp 1040 [13a 4 8 800] ------- [8:0 24:0 29 14] [6 0] 1 0
r 1.300026735 _4_ RTR  --- 12 tcp 1040 [13a 4 8 800] ------- [8:0 24:0 30 4] [7 0] 1 0
f 1.300026735 _4_ RTR  --- 12 tcp 1040 [13a 4 8 800] ------- [8:0 24:0 29 14] [7 0] 1 0
r 1.310051456 _14_ RTR  --- 11 tcp 1040 [13a e 4 800] ------- [8:0 24:0 29 14] [6 0] 2 0
f 1.310051456 _14_ RTR  --- 11 tcp 1040 [13a e 4 800] ------- [8:0 24:0 28 28] [6 0] 2 0
r 1.319936419 _14_ RTR  --- 12 tcp 1040 [13a e 4 800] ------- [8:0 24:0 29 14] [7 0] 2 0
f 1.319936419 _14_ RTR  --- 12 tcp 1040 [13a e 4 800] ------- [8:0 24:0 28 28] [7 0] 2 0
r 1.329902580 _28_ RTR  --- 10 tcp 1040 [13a 1c e 800] ------- [8:0 24:0 28 28] [5 0] 3 0
f 1.329902580 _28_ RTR  --- 10 tcp 1040 [13a 1c e 800] ------- [8:0 24:0 27 24] [5 0] 3 0
r 1.331748742 _14_ RTR  --- 9 ack 40 [13a e 1c 800] ------- [24:0 8:0 29 14] [4 0] 2 0
f 1.331748742 _14_ RTR  --- 9 ack 40 [13a e 1c 800] ------- [24:0 8:0 28 4] [4 0] 2 0
r 1.341695470 _24_ AGT  --- 10 tcp 1040 [13a 18 1c 800] ------- [8:0 24:0 27 24] [5 0] 4 0
s 1.341695470 _24_ AGT  --- 14 ack 40 [0 0 0 0] ------- [24:0 8:0 32 0] [5 0] 0 0
r 1.341695470 _24_ RTR  --- 14 ack 40 [0 0 0 0] ------- [24:0 8:0 32 0] [5 0] 0 0
s 1.341695470 _24_ RTR  --- 14 ack 40 [0 0 0 0] ------- [24:0 8:0 30 28] [5 0] 0 0
r 1.353028925 _28_ RTR  --- 11 tcp 1040 [13a 1c e 800] ------- [8:0 24:0 28 28] [6 0] 3 0
f 1.353028925 _28_ RTR  --- 11 tcp 1040 [13a 1c e 800] ------- [8:0 24:0 27 24] [6 0] 3 0
r 1.354965505 _28_ RTR  --- 14 ack 40 [13a 1c 18 800] ------- [24:0 8:0 30 28] [5 0] 1 0
f 1.354965505 _28_ RTR  --- 14 ack 40 [13a 1c 18 800] ------- [24:0 8:0 29 14] [5 0] 1 0
r 1.365202290 _28_ RTR  --- 12 tcp 1040 [13a 1c e 800] ------- [8:0 24:0 28 28] [7 0] 3 0
f 1.365202290 _28_ RTR  --- 12 tcp 1040 [13a 1c e 800] ------- [8:0 24:0 27 24] [7 0] 3 0
r 1.375128298 _24_ AGT  --- 11 tcp 1040 [13a 18 1c 800] ------- [8:0 24:0 27 24] [6 0] 4 0
s 1.375128298 _24_ AGT  --- 15 ack 40 [0 0 0 0] ------- [24:0 8:0 32 0] [6 0] 0 0
r 1.375128298 _24_ RTR  --- 15 ack 40 [0 0 0 0] ------- [24:0 8:0 32 0] [6 0] 0 0
s 1.375128298 _24_ RTR  --- 15 ack 40 [0 0 0 0] ------- [24:0 8:0 30 28] [6 0] 0 0
r 1.377054306 _28_ RTR  --- 15 ack 40 [13a 1c 18 800] ------- [24:0 8:0 30 28] [6 0] 1 0
f 1.377054306 _28_ RTR  --- 15 ack 40 [13a 1c 18 800] ------- [24:0 8:0 29 14] [6 0] 1 0
r 1.379020468 _14_ RTR  --- 14 ack 40 [13a e 1c 800] ------- [24:0 8:0 29 14] [5 0] 2 0
f 1.379020468 _14_ RTR  --- 14 ack 40 [13a e 1c 800] ------- [24:0 8:0 28 4] [5 0] 2 0
r 1.388887196 _24_ AGT  --- 12 tcp 1040 [13a 18 1c 800] ------- [8:0 24:0 27 24] [7 0] 4 0
s 1.388887196 _24_ AGT  --- 16 ack 40 [0 0 0 0] ------- [24:0 8:0 32 0] [7 0] 0 0
r 1.388887196 _24_ RTR  --- 16 ack 40 [0 0 0 0] ------- [24:0 8:0 32 0] [7 0] 0 0
s 1.388887196 _24_ RTR  --- 16 ack 40 [0 0 0 0] ------- [24:0 8:0 30 28] [7 0] 0 0