s 1.000000000 _5_ AGT  --- 0 tcp 40 [0 0 0 0] ------- [5:0 11:0 32 0] [0 0] 0 0
r 1.000000000 _5_ RTR  --- 0 tcp 40 [0 0 0 0] ------- [5:0 11:0 32 0] [0 0] 0 0
s 1.000000000 _5_ RTR  --- 0 AODV 48 [0 0 0 0] ------- [5:255 -1:255 30 0] [0x2 1 1 [11 0] [5 4]] (REQUEST)
r 1.000988204 _32_ RTR  --- 0 AODV 48 [0 ffffffff 5 800] ------- [5:255 -1:255 30 0] [0x2 1 1 [11 0] [5 4]] (REQUEST)
r 1.000988426 _28_ RTR  --- 0 AODV 48 [0 ffffffff 5 800] ------- [5:255 -1:255 30 0] [0x2 1 1 [11 0] [5 4]] (REQUEST)
r 1.000988581 _45_ RTR  --- 0 AODV 48 [0 ffffffff 5 800] ------- [5:255 -1:255 30 0] [0x2 1 1 [11 0] [5 4]] (REQUEST)
r 1.000988652 _34_ RTR  --- 0 AODV 48 [0 ffffffff 5 800] ------- [5:255 -1:255 30 0] [0x2 1 1 [11 0] [5 4]] (REQUEST)
r 1.000988774 _2_ RTR  --- 0 AODV 48 [0 ffffffff 5 800] ------- [5:255 -1:255 30 0] [0x2 1 1 [11 0] [5 4]] (REQUEST)
r 1.000988829 _0_ RTR  --- 0 AODV 48 [0 ffffffff 5 800] ------- [5:255 -1:255 30 0] [0x2 1 1 [11 0] [5 4]] (REQUEST)
s 1.001869430 _32_ RTR  --- 0 AODV 48 [0 ffffffff 5 800] ------- [32:255 -1:255 29 0] [0x2 2 1 [11 0] [5 4]] (REQUEST)
r 1.003177634 _5_ RTR  --- 0 AODV 48 [0 ffffffff 20 800] ------- [32:255 -1:255 29 0] [0x2 2 1 [11 0] [5 4]] (REQUEST)
r 1.003177664 _28_ RTR  --- 0 AODV 48 [0 ffffffff 20 800] ------- [32:255 -1:255 29 0] [0x2 2 1 [11 0] [5 4]] (REQUEST)
r 1.003178099 _0_ RTR  --- 0 AODV 48 [0 ffffffff 20 800] ------- [32:255 -1:255 29 0] [0x2 2 1 [11 0] [5 4]] (REQUEST)
r 1.003178124 _45_ RTR  --- 0 AODV 48 [0 ffffffff 20 800] ------- [32:255 -1:255 29 0] [0x2 2 1 [11 0] [5 4]] (REQUEST)
r 1.003178216 _34_ RTR  --- 0 AODV 48 [0 ffffffff 20 800] ------- [32:255 -1:255 29 0] [0x2 2 1 [11 0] [5 4]] (REQUEST)
s 1.003334847 _0_ RTR  --- 0 AODV 48 [0 ffffffff 5 800] ------- [0:255 -1:255 29 0] [0x2 2 1 [11 0] [5 4]] (REQUEST)
s 1.004118270 _34_ RTR  --- 0 AODV 48 [0 ffffffff 5 800] ------- [34:255 -1:255 29 0] [0x2 2 1 [11 0] [5 4]] (REQUEST)
r 1.004523043 _31_ RTR  --- 0 AODV 48 [0 ffffffff 0 800] ------- [0:255 -1:255 29 0] [0x2 2 1 [11 0] [5 4]] (REQUEST)
r 1.004523296 _28_ RTR  --- 0 AODV 48 [0 ffffffff 0 800] ------- [0:255 -1:255 29 0] [0x2 2 1 [11 0] [5 4]] (REQUEST)
r 1.004523516 _32_ RTR  --- 0 AODV 48 [0 ffffffff 0 800] ------- [0:255 -1:255 29 0] [0x2 2 1 [11 0] [5 4]] (REQUEST)
r 1.004523569 _47_ RTR  --- 0 AODV 48 [0 ffffffff 0 800] ------- [0:255 -1:255 29 0] [0x2 2 1 [11 0] [5 4]] (REQUEST)
r 1.004523621 _24_ RTR  --- 0 AODV 48 [0 ffffffff 0 800] ------- [0:255 -1:255 29 0] [0x2 2 1 [11 0] [5 4]] (REQUEST)
r 1.004523676 _5_ RTR  --- 0 AODV 48 [0 ffffffff 0 800] ------- [0:255 -1:255 29 0] [0x2 2 1 [11 0] [5 4]] (REQUEST)
s 1.005400159 _28_ RTR  --- 0 AODV 48 [0 ffffffff 5 800] ------- [28:255 -1:255 29 0] [0x2 2 1 [11 0] [5 4]] (REQUEST)
s 1.005661652 _47_ RTR  --- 0 AODV 48 [0 ffffffff 0 800] ------- [47:255 -1:255 28 0] [0x2 3 1 [11 0] [5 4]] (REQUEST)
r 1.005826031 _45_ RTR  --- 0 AODV 48 [0 ffffffff 22 800] ------- [34:255 -1:255 29 0] [0x2 2 1 [11 0] [5 4]] (REQUEST)
r 1.005826113 _2_ RTR  --- 0 AODV 48 [0 ffffffff 22 800] ------- [34:255 -1:255 29 0] [0x2 2 1 [11 0] [5 4]] (REQUEST)
r 1.005826266 _12_ RTR  --- 0 AODV 48 [0 ffffffff 22 800] ------- [34:255 -1:255 29 0] [0x2 2 1 [11 0] [5 4]] (REQUEST)
r 1.005826402 _42_ RTR  --- 0 AODV 48 [0 ffffffff 22 800] ------- [34:255 -1:255 29 0] [0x2 2 1 [11 0] [5 4]] (REQUEST)
r 1.005826563 _5_ RTR  --- 0 AODV 48 [0 ffffffff 22 800] ------- [34:255 -1:255 29 0] [0x2 2 1 [11 0] [5 4]] (REQUEST)
r 1.005826634 _13_ RTR  --- 0 AODV 48 [0 ffffffff 22 800] ------- [34:255 -1:255 29 0] [0x2 2 1 [11 0] [5 4]] (REQUEST)
r 1.005826697 _32_ RTR  --- 0 AODV 48 [0 ffffffff 22 800] ------- [34:255 -1:255 29 0] [0x2 2 1 [11 0] [5 4]] (REQUEST)
r 1.007249038 _32_ RTR  --- 0 AODV 48 [0 ffffffff 1c 800] ------- [28:255 -1:255 29 0] [0x2 2 1 [11 0] [5 4]] (REQUEST)
r 1.007249230 _5_ RTR  --- 0 AODV 48 [0 ffffffff 1c 800] ------- [28:255 -1:255 29 0] [0x2 2 1 [11 0] [5 4]] (REQUEST)
r 1.007249253 _0_ RTR  --- 0 AODV 48 [0 ffffffff 1c 800] ------- [28:255 -1:255 29 0] [0x2 2 1 [11 0] [5 4]] (REQUEST)
r 1.007249442 _31_ RTR  --- 0 AODV 48 [0 ffffffff 1c 800] ------- [28:255 -1:255 29 0] [0x2 2 1 [11 0] [5 4]] (REQUEST)
r 1.007249588 _45_ RTR  --- 0 AODV 48 [0 ffffffff 1c 800] ------- [28:255 -1:255 29 0] [0x2 2 1 [11 0] [5 4]] (REQUEST)
s 1.008407514 _13_ RTR  --- 0 AODV 48 [0 ffffffff 22 800] ------- [13:255 -1:255 28 0] [0x2 3 1 [11 0] [5 4]] (REQUEST)
r 1.008832433 _24_ RTR  --- 0 AODV 48 [0 ffffffff 2f 800] ------- [47:255 -1:255 28 0] [0x2 3 1 [11 0] [5 4]] (REQUEST)
r 1.008832476 _31_ RTR  --- 0 AODV 48 [0 ffffffff 2f 800] ------- [47:255 -1:255 28 0] [0x2 3 1 [11 0] [5 4]] (REQUEST)
r 1.008832636 _20_ RTR  --- 0 AODV 48 [0 ffffffff 2f 800] ------- [47:255 -1:255 28 0] [0x2 3 1 [11 0] [5 4]] (REQUEST)
r 1.008832671 _0_ RTR  --- 0 AODV 48 [0 ffffffff 2f 800] ------- [47:255 -1:255 28 0] [0x2 3 1 [11 0] [5 4]] (REQUEST)
s 1.008980135 _45_ RTR  --- 0 AODV 48 [0 ffffffff 5 800] ------- [45:255 -1:255 29 0] [0x2 2 1 [11 0] [5 4]] (REQUEST)
s 1.009153535 _2_ RTR  --- 0 AODV 48 [0 ffffffff 5 800] ------- [2:255 -1:255 29 0] [0x2 2 1 [11 0] [5 4]] (REQUEST)
s 1.009313812 _42_ RTR  --- 0 AODV 48 [0 ffffffff 22 800] ------- [42:255 -1:255 28 0] [0x2 3 1 [11 0] [5 4]] (REQUEST)
r 1.009595833 _9_ RTR  --- 0 AODV 48 [0 ffffffff d 800] ------- [13:255 -1:255 28 0] [0x2 3 1 [11 0] [5 4]] (REQUEST)
r 1.009596033 _6_ RTR  --- 0 AODV 48 [0 ffffffff d 800] ------- [13:255 -1:255 28 0] [0x2 3 1 [11 0] [5 4]] (REQUEST)
r 1.009596127 _36_ RTR  --- 0 AODV 48 [0 ffffffff d 800] ------- [13:255 -1:255 28 0] [0x2 3 1 [11 0] [5 4]] (REQUEST)
r 1.009596283 _37_ RTR  --- 0 AODV 48 [0 ffffffff d 800] ------- [13:255 -1:255 28 0] [0x2 3 1 [11 0] [5 4]] (REQUEST)
r 1.009596289 _3_ RTR  --- 0 AODV 48 [0 ffffffff d 800] ------- [13:255 -1:255 28 0] [0x2 3 1 [11 0] [5 4]] (REQUEST)
r 1.009596318 _35_ RTR  --- 0 AODV 48 [0 ffffffff d 800] ------- [13:255 -1:255 28 0] [0x2 3 1 [11 0] [5 4]] (REQUEST)
s 1.010688303 _35_ RTR  --- 0 AODV 48 [0 ffffffff d 800] ------- [35:255 -1:255 27 0] [0x2 4 1 [11 0] [5 4]] (REQUEST)
s 1.010923720 _31_ RTR  --- 0 AODV 48 [0 ffffffff 0 800] ------- [31:255 -1:255 28 0] [0x2 3 1 [11 0] [5 4]] (REQUEST)
r 1.011258252 _34_ RTR  --- 0 AODV 48 [0 ffffffff 2 800] ------- [2:255 -1:255 29 0] [0x2 2 1 [11 0] [5 4]] (REQUEST)
r 1.011258341 _42_ RTR  --- 0 AODV 48 [0 ffffffff 2 800] ------- [2:255 -1:255 29 0] [0x2 2 1 [11 0] [5 4]] (REQUEST)
r 1.011258370 _45_ RTR  --- 0 AODV 48 [0 ffffffff 2 800] ------- [2:255 -1:255 29 0] [0x2 2 1 [11 0] [5 4]] (REQUEST)
r 1.011258437 _12_ RTR  --- 0 AODV 48 [0 ffffffff 2 800] ------- [2:255 -1:255 29 0] [0x2 2 1 [11 0] [5 4]] (REQUEST)
r 1.011258587 _13_ RTR  --- 0 AODV 48 [0 ffffffff 2 800] ------- [2:255 -1:255 29 0] [0x2 2 1 [11 0] [5 4]] (REQUEST)
r 1.011258825 _5_ RTR  --- 0 AODV 48 [0 ffffffff 2 800] ------- [2:255 -1:255 29 0] [0x2 2 1 [11 0] [5 4]] (REQUEST)
r 1.012296612 _13_ RTR  --- 0 AODV 48 [0 ffffffff 2a 800] ------- [42:255 -1:255 28 0] [0x2 3 1 [11 0] [5 4]] (REQUEST)
r 1.012296632 _2_ RTR  --- 0 AODV 48 [0 ffffffff 2a 800] ------- [42:255 -1:255 28 0] [0x2 3 1 [11 0] [5 4]] (REQUEST)
r 1.012296831 _34_ RTR  --- 0 AODV 48 [0 ffffffff 2a 800] ------- [42:255 -1:255 28 0] [0x2 3 1 [11 0] [5 4]] (REQUEST)
r 1.012296878 _12_ RTR  --- 0 AODV 48 [0 ffffffff 2a 800] ------- [42:255 -1:255 28 0] [0x2 3 1 [11 0] [5 4]] (REQUEST)
r 1.012296932 _9_ RTR  --- 0 AODV 48 [0 ffffffff 2a 800] ------- [42:255 -1:255 28 0] [0x2 3 1 [11 0] [5 4]] (REQUEST)
r 1.012296951 _45_ RTR  --- 0 AODV 48 [0 ffffffff 2a 800] ------- [42:255 -1:255 28 0] [0x2 3 1 [11 0] [5 4]] (REQUEST)
r 1.012297056 _6_ RTR  --- 0 AODV 48 [0 ffffffff 2a 800] ------- [42:255 -1:255 28 0] [0x2 3 1 [11 0] [5 4]] (REQUEST)
s 1.013120898 _24_ RTR  --- 0 AODV 48 [0 ffffffff 0 800] ------- [24:255 -1:255 28 0] [0x2 3 1 [11 0] [5 4]] (REQUEST)
r 1.013235070 _34_ RTR  --- 0 AODV 48 [0 ffffffff 2d 800] ------- [45:255 -1:255 29 0] [0x2 2 1 [11 0] [5 4]] (REQUEST)
r 1.013235270 _2_ RTR  --- 0 AODV 48 [0 ffffffff 2d 800] ------- [45:255 -1:255 29 0] [0x2 2 1 [11 0] [5 4]] (REQUEST)
r 1.013235358 _12_ RTR  --- 0 AODV 48 [0 ffffffff 2d 800] ------- [45:255 -1:255 29 0] [0x2 2 1 [11 0] [5 4]] (REQUEST)
r 1.013235531 _5_ RTR  --- 0 AODV 48 [0 ffffffff 2d 800] ------- [45:255 -1:255 29 0] [0x2 2 1 [11 0] [5 4]] (REQUEST)
r 1.013235560 _42_ RTR  --- 0 AODV 48 [0 ffffffff 2d 800] ------- [45:255 -1:255 29 0] [0x2 2 1 [11 0] [5 4]] (REQUEST)
r 1.013235644 _32_ RTR  --- 0 AODV 48 [0 ffffffff 2d 800] ------- [45:255 -1:255 29 0] [0x2 2 1 [11 0] [5 4]] (REQUEST)
r 1.013235734 _28_ RTR  --- 0 AODV 48 [0 ffffffff 2d 800] ------- [45:255 -1:255 29 0] [0x2 2 1 [11 0] [5 4]] (REQUEST)
s 1.013651480 _3_ RTR  --- 0 AODV 48 [0 ffffffff d 800] ------- [3:255 -1:255 27 0] [0x2 4 1 [11 0] [5 4]] (REQUEST)
s 1.013896552 _12_ RTR  --- 0 AODV 48 [0 ffffffff 22 800] ------- [12:255 -1:255 28 0] [0x2 3 1 [11 0] [5 4]] (REQUEST)
r 1.014598163 _0_ RTR  --- 0 AODV 48 [0 ffffffff 1f 800] ------- [31:255 -1:255 28 0] [0x2 3 1 [11 0] [5 4]] (REQUEST)
r 1.014598494 _47_ RTR  --- 0 AODV 48 [0 ffffffff 1f 800] ------- [31:255 -1:255 28 0] [0x2 3 1 [11 0] [5 4]] (REQUEST)
r 1.014598605 _28_ RTR  --- 0 AODV 48 [0 ffffffff 1f 800] ------- [31:255 -1:255 28 0] [0x2 3 1 [11 0] [5 4]] (REQUEST)
r 1.014598615 _24_ RTR  --- 0 AODV 48 [0 ffffffff 1f 800] ------- [31:255 -1:255 28 0] [0x2 3 1 [11 0] [5 4]] (REQUEST)
r 1.014659837 _36_ RTR  --- 0 AODV 48 [0 ffffffff 3 800] ------- [3:255 -1:255 27 0] [0x2 4 1 [11 0] [5 4]] (REQUEST)
r 1.014659870 _6_ RTR  --- 0 AODV 48 [0 ffffffff 3 800] ------- [3:255 -1:255 27 0] [0x2 4 1 [11 0] [5 4]] (REQUEST)
r 1.014660001 _9_ RTR  --- 0 AODV 48 [0 ffffffff 3 800] ------- [3:255 -1:255 27 0] [0x2 4 1 [11 0] [5 4]] (REQUEST)
r 1.014660019 _37_ RTR  --- 0 AODV 48 [0 ffffffff 3 800] ------- [3:255 -1:255 27 0] [0x2 4 1 [11 0] [5 4]] (REQUEST)
r 1.014660244 _35_ RTR  --- 0 AODV 48 [0 ffffffff 3 800] ------- [3:255 -1:255 27 0] [0x2 4 1 [11 0] [5 4]] (REQUEST)
r 1.015597036 _48_ RTR  --- 0 AODV 48 [0 ffffffff 18 800] ------- [24:255 -1:255 28 0] [0x2 3 1 [11 0] [5 4]] (REQUEST)
r 1.015597099 _47_ RTR  --- 0 AODV 48 [0 ffffffff 18 800] ------- [24:255 -1:255 28 0] [0x2 3 1 [11 0] [5 4]] (REQUEST)
r 1.015597256 _10_ RTR  --- 0 AODV 48 [0 ffffffff 18 800] ------- [24:255 -1:255 28 0] [0x2 3 1 [11 0] [5 4]] (REQUEST)
r 1.015597263 _31_ RTR  --- 0 AODV 48 [0 ffffffff 18 800] ------- [24:255 -1:255 28 0] [0x2 3 1 [11 0] [5 4]] (REQUEST)
r 1.015597267 _20_ RTR  --- 0 AODV 48 [0 ffffffff 18 800] ------- [24:255 -1:255 28 0] [0x2 3 1 [11 0] [5 4]] (REQUEST)
r 1.015597389 _0_ RTR  --- 0 AODV 48 [0 ffffffff 18 800] ------- [24:255 -1:255 28 0] [0x2 3 1 [11 0] [5 4]] (REQUEST)
r 1.015598479 _37_ RTR  --- 0 AODV 48 [0 ffffffff 23 800] ------- [35:255 -1:255 27 0] [0x2 4 1 [11 0] [5 4]] (REQUEST)
r 1.015598667 _36_ RTR  --- 0 AODV 48 [0 ffffffff 23 800] ------- [35:255 -1:255 27 0] [0x2 4 1 [11 0] [5 4]] (REQUEST)
r 1.015599008 _3_ RTR  --- 0 AODV 48 [0 ffffffff 23 800] ------- [35:255 -1:255 27 0] [0x2 4 1 [11 0] [5 4]] (REQUEST)
s 1.015755704 _20_ RTR  --- 0 AODV 48 [0 ffffffff 2f 800] ------- [20:255 -1:255 27 0] [0x2 4 1 [11 0] [5 4]] (REQUEST)
s 1.016369522 _6_ RTR  --- 0 AODV 48 [0 ffffffff d 800] ------- [6:255 -1:255 27 0] [0x2 4 1 [11 0] [5 4]] (REQUEST)
r 1.016704221 _10_ RTR  --- 0 AODV 48 [0 ffffffff 14 800] ------- [20:255 -1:255 27 0] [0x2 4 1 [11 0] [5 4]] (REQUEST)
r 1.016704227 _1_ RTR  --- 0 AODV 48 [0 ffffffff 14 800] ------- [20:255 -1:255 27 0] [0x2 4 1 [11 0] [5 4]] (REQUEST)
r 1.016704271 _48_ RTR  --- 0 AODV 48 [0 ffffffff 14 800] ------- [20:255 -1:255 27 0] [0x2 4 1 [11 0] [5 4]] (REQUEST)
r 1.016704318 _8_ RTR  --- 0 AODV 48 [0 ffffffff 14 800] ------- [20:255 -1:255 27 0] [0x2 4 1 [11 0] [5 4]] (REQUEST)
r 1.016704355 _15_ RTR  --- 0 AODV 48 [0 ffffffff 14 800] ------- [20:255 -1:255 27 0] [0x2 4 1 [11 0] [5 4]] (REQUEST)
r 1.016704356 _24_ RTR  --- 0 AODV 48 [0 ffffffff 14 800] ------- [20:255 -1:255 27 0] [0x2 4 1 [11 0] [5 4]] (REQUEST)
r 1.016704392 _47_ RTR  --- 0 AODV 48 [0 ffffffff 14 800] ------- [20:255 -1:255 27 0] [0x2 4 1 [11 0] [5 4]] (REQUEST)
r 1.016704403 _43_ RTR  --- 0 AODV 48 [0 ffffffff 14 800] ------- [20:255 -1:255 27 0] [0x2 4 1 [11 0] [5 4]] (REQUEST)
r 1.016704431 _46_ RTR  --- 0 AODV 48 [0 ffffffff 14 800] ------- [20:255 -1:255 27 0] [0x2 4 1 [11 0] [5 4]] (REQUEST)
s 1.016979930 _15_ RTR  --- 0 AODV 48 [0 ffffffff 14 800] ------- [15:255 -1:255 26 0] [0x2 5 1 [11 0] [5 4]] (REQUEST)
s 1.017218446 _36_ RTR  --- 0 AODV 48 [0 ffffffff d 800] ------- [36:255 -1:255 27 0] [0x2 4 1 [11 0] [5 4]] (REQUEST)
r 1.017537913 _3_ RTR  --- 0 AODV 48 [0 ffffffff 6 800] ------- [6:255 -1:255 27 0] [0x2 4 1 [11 0] [5 4]] (REQUEST)
r 1.017537956 _9_ RTR  --- 0 AODV 48 [0 ffffffff 6 800] ------- [6:255 -1:255 27 0] [0x2 4 1 [11 0] [5 4]] (REQUEST)
r 1.017538039 _36_ RTR  --- 0 AODV 48 [0 ffffffff 6 800] ------- [6:255 -1:255 27 0] [0x2 4 1 [11 0] [5 4]] (REQUEST)
r 1.017538042 _13_ RTR  --- 0 AODV 48 [0 ffffffff 6 800] ------- [6:255 -1:255 27 0] [0x2 4 1 [11 0] [5 4]] (REQUEST)
r 1.017538237 _42_ RTR  --- 0 AODV 48 [0 ffffffff 6 800] ------- [6:255 -1:255 27 0] [0x2 4 1 [11 0] [5 4]] (REQUEST)
r 1.017538270 _37_ RTR  --- 0 AODV 48 [0 ffffffff 6 800] ------- [6:255 -1:255 27 0] [0x2 4 1 [11 0] [5 4]] (REQUEST)
s 1.018106899 _9_ RTR  --- 0 AODV 48 [0 ffffffff d 800] ------- [9:255 -1:255 27 0] [0x2 4 1 [11 0] [5 4]] (REQUEST)
s 1.018166974 _48_ RTR  --- 0 AODV 48 [0 ffffffff 18 800] ------- [48:255 -1:255 27 0] [0x2 4 1 [11 0] [5 4]] (REQUEST)
r 1.018168249 _1_ RTR  --- 0 AODV 48 [0 ffffffff f 800] ------- [15:255 -1:255 26 0] [0x2 5 1 [11 0] [5 4]] (REQUEST)
r 1.018168382 _14_ RTR  --- 0 AODV 48 [0 ffffffff f 800] ------- [15:255 -1:255 26 0] [0x2 5 1 [11 0] [5 4]] (REQUEST)
r 1.018168486 _43_ RTR  --- 0 AODV 48 [0 ffffffff f 800] ------- [15:255 -1:255 26 0] [0x2 5 1 [11 0] [5 4]] (REQUEST)
r 1.018168489 _22_ RTR  --- 0 AODV 48 [0 ffffffff f 800] ------- [15:255 -1:255 26 0] [0x2 5 1 [11 0] [5 4]] (REQUEST)
r 1.018168520 _19_ RTR  --- 0 AODV 48 [0 ffffffff f 800] ------- [15:255 -1:255 26 0] [0x2 5 1 [11 0] [5 4]] (REQUEST)
r 1.018168567 _8_ RTR  --- 0 AODV 48 [0 ffffffff f 800] ------- [15:255 -1:255 26 0] [0x2 5 1 [11 0] [5 4]] (REQUEST)
r 1.018168581 _20_ RTR  --- 0 AODV 48 [0 ffffffff f 800] ------- [15:255 -1:255 26 0] [0x2 5 1 [11 0] [5 4]] (REQUEST)
r 1.018168614 _46_ RTR  --- 0 AODV 48 [0 ffffffff f 800] ------- [15:255 -1:255 26 0] [0x2 5 1 [11 0] [5 4]] (REQUEST)
r 1.018168651 _29_ RTR  --- 0 AODV 48 [0 ffffffff f 800] ------- [15:255 -1:255 26 0] [0x2 5 1 [11 0] [5 4]] (REQUEST)
r 1.018168693 _25_ RTR  --- 0 AODV 48 [0 ffffffff f 800] ------- [15:255 -1:255 26 0] [0x2 5 1 [11 0] [5 4]] (REQUEST)
s 1.018566573 _46_ RTR  --- 0 AODV 48 [0 ffffffff 14 800] ------- [46:255 -1:255 26 0] [0x2 5 1 [11 0] [5 4]] (REQUEST)
s 1.018645738 _37_ RTR  --- 0 AODV 48 [0 ffffffff d 800] ------- [37:255 -1:255 27 0] [0x2 4 1 [11 0] [5 4]] (REQUEST)
s 1.018670027 _25_ RTR  --- 0 AODV 48 [0 ffffffff f 800] ------- [25:255 -1:255 25 0] [0x2 6 1 [11 0] [5 4]] (REQUEST)
r 1.018736270 _37_ RTR  --- 0 AODV 48 [0 ffffffff 24 800] ------- [36:255 -1:255 27 0] [0x2 4 1 [11 0] [5 4]] (REQUEST)
r 1.018736333 _9_ RTR  --- 0 AODV 48 [0 ffffffff 24 800] ------- [36:255 -1:255 27 0] [0x2 4 1 [11 0] [5 4]] (REQUEST)
r 1.018736397 _3_ RTR  --- 0 AODV 48 [0 ffffffff 24 800] ------- [36:255 -1:255 27 0] [0x2 4 1 [11 0] [5 4]] (REQUEST)
r 1.018736462 _35_ RTR  --- 0 AODV 48 [0 ffffffff 24 800] ------- [36:255 -1:255 27 0] [0x2 4 1 [11 0] [5 4]] (REQUEST)
r 1.018736556 _6_ RTR  --- 0 AODV 48 [0 ffffffff 24 800] ------- [36:255 -1:255 27 0] [0x2 4 1 [11 0] [5 4]] (REQUEST)
r 1.018736652 _13_ RTR  --- 0 AODV 48 [0 ffffffff 24 800] ------- [36:255 -1:255 27 0] [0x2 4 1 [11 0] [5 4]] (REQUEST)
s 1.019082089 _19_ RTR  --- 0 AODV 48 [0 ffffffff f 800] ------- [19:255 -1:255 25 0] [0x2 6 1 [11 0] [5 4]] (REQUEST)
r 1.019654627 _36_ RTR  --- 0 AODV 48 [0 ffffffff 9 800] ------- [9:255 -1:255 27 0] [0x2 4 1 [11 0] [5 4]] (REQUEST)
r 1.019654653 _13_ RTR  --- 0 AODV 48 [0 ffffffff 9 800] ------- [9:255 -1:255 27 0] [0x2 4 1 [11 0] [5 4]] (REQUEST)
r 1.019654767 _6_ RTR  --- 0 AODV 48 [0 ffffffff 9 800] ------- [9:255 -1:255 27 0] [0x2 4 1 [11 0] [5 4]] (REQUEST)
r 1.019654793 _37_ RTR  --- 0 AODV 48 [0 ffffffff 9 800] ------- [9:255 -1:255 27 0] [0x2 4 1 [11 0] [5 4]] (REQUEST)
r 1.019654855 _3_ RTR  --- 0 AODV 48 [0 ffffffff 9 800] ------- [9:255 -1:255 27 0] [0x2 4 1 [11 0] [5 4]] (REQUEST)
r 1.019654878 _35_ RTR  --- 0 AODV 48 [0 ffffffff 9 800] ------- [9:255 -1:255 27 0] [0x2 4 1 [11 0] [5 4]] (REQUEST)
r 1.019654924 _42_ RTR  --- 0 AODV 48 [0 ffffffff 9 800] ------- [9:255 -1:255 27 0] [0x2 4 1 [11 0] [5 4]] (REQUEST)
r 1.019655091 _38_ RTR  --- 0 AODV 48 [0 ffffffff 9 800] ------- [9:255 -1:255 27 0] [0x2 4 1 [11 0] [5 4]] (REQUEST)
r 1.019698265 _46_ RTR  --- 0 AODV 48 [0 ffffffff 19 800] ------- [25:255 -1:255 25 0] [0x2 6 1 [11 0] [5 4]] (REQUEST)
r 1.019698285 _43_ RTR  --- 0 AODV 48 [0 ffffffff 19 800] ------- [25:255 -1:255 25 0] [0x2 6 1 [11 0] [5 4]] (REQUEST)
r 1.019698328 _29_ RTR  --- 0 AODV 48 [0 ffffffff 19 800] ------- [25:255 -1:255 25 0] [0x2 6 1 [11 0] [5 4]] (REQUEST)
r 1.019698340 _19_ RTR  --- 0 AODV 48 [0 ffffffff 19 800] ------- [25:255 -1:255 25 0] [0x2 6 1 [11 0] [5 4]] (REQUEST)
r 1.019698376 _8_ RTR  --- 0 AODV 48 [0 ffffffff 19 800] ------- [25:255 -1:255 25 0] [0x2 6 1 [11 0] [5 4]] (REQUEST)
r 1.019698544 _1_ RTR  --- 0 AODV 48 [0 ffffffff 19 800] ------- [25:255 -1:255 25 0] [0x2 6 1 [11 0] [5 4]] (REQUEST)
r 1.019698548 _27_ RTR  --- 0 AODV 48 [0 ffffffff 19 800] ------- [25:255 -1:255 25 0] [0x2 6 1 [11 0] [5 4]] (REQUEST)
r 1.019698553 _4_ RTR  --- 0 AODV 48 [0 ffffffff 19 800] ------- [25:255 -1:255 25 0] [0x2 6 1 [11 0] [5 4]] (REQUEST)
r 1.019698671 _14_ RTR  --- 0 AODV 48 [0 ffffffff 19 800] ------- [25:255 -1:255 25 0] [0x2 6 1 [11 0] [5 4]] (REQUEST)
r 1.019698790 _15_ RTR  --- 0 AODV 48 [0 ffffffff 19 800] ------- [25:255 -1:255 25 0] [0x2 6 1 [11 0] [5 4]] (REQUEST)
s 1.019955660 _14_ RTR  --- 0 AODV 48 [0 ffffffff f 800] ------- [14:255 -1:255 25 0] [0x2 6 1 [11 0] [5 4]] (REQUEST)
s 1.019977573 _43_ RTR  --- 0 AODV 48 [0 ffffffff 14 800] ------- [43:255 -1:255 26 0] [0x2 5 1 [11 0] [5 4]] (REQUEST)
r 1.020616380 _8_ RTR  --- 0 AODV 48 [0 ffffffff 2e 800] ------- [46:255 -1:255 26 0] [0x2 5 1 [11 0] [5 4]] (REQUEST)
r 1.020616402 _43_ RTR  --- 0 AODV 48 [0 ffffffff 2e 800] ------- [46:255 -1:255 26 0] [0x2 5 1 [11 0] [5 4]] (REQUEST)
r 1.020616504 _25_ RTR  --- 0 AODV 48 [0 ffffffff 2e 800] ------- [46:255 -1:255 26 0] [0x2 5 1 [11 0] [5 4]] (REQUEST)
r 1.020616646 _1_ RTR  --- 0 AODV 48 [0 ffffffff 2e 800] ------- [46:255 -1:255 26 0] [0x2 5 1 [11 0] [5 4]] (REQUEST)
r 1.020616688 _27_ RTR  --- 0 AODV 48 [0 ffffffff 2e 800] ------- [46:255 -1:255 26 0] [0x2 5 1 [11 0] [5 4]] (REQUEST)
r 1.020616713 _19_ RTR  --- 0 AODV 48 [0 ffffffff 2e 800] ------- [46:255 -1:255 26 0] [0x2 5 1 [11 0] [5 4]] (REQUEST)
r 1.020616760 _29_ RTR  --- 0 AODV 48 [0 ffffffff 2e 800] ------- [46:255 -1:255 26 0] [0x2 5 1 [11 0] [5 4]] (REQUEST)
r 1.020616949 _15_ RTR  --- 0 AODV 48 [0 ffffffff 2e 800] ------- [46:255 -1:255 26 0] [0x2 5 1 [11 0] [5 4]] (REQUEST)
r 1.020616983 _14_ RTR  --- 0 AODV 48 [0 ffffffff 2e 800] ------- [46:255 -1:255 26 0] [0x2 5 1 [11 0] [5 4]] (REQUEST)
r 1.020616992 _20_ RTR  --- 0 AODV 48 [0 ffffffff 2e 800] ------- [46:255 -1:255 26 0] [0x2 5 1 [11 0] [5 4]] (REQUEST)
r 1.020616999 _4_ RTR  --- 0 AODV 48 [0 ffffffff 2e 800] ------- [46:255 -1:255 26 0] [0x2 5 1 [11 0] [5 4]] (REQUEST)
r 1.020633024 _36_ RTR  --- 0 AODV 48 [0 ffffffff 25 800] ------- [37:255 -1:255 27 0] [0x2 4 1 [11 0] [5 4]] (REQUEST)
r 1.020633028 _35_ RTR  --- 0 AODV 48 [0 ffffffff 25 800] ------- [37:255 -1:255 27 0] [0x2 4 1 [11 0] [5 4]] (REQUEST)
r 1.020633254 _9_ RTR  --- 0 AODV 48 [0 ffffffff 25 800] ------- [37:255 -1:255 27 0] [0x2 4 1 [11 0] [5 4]] (REQUEST)
r 1.020633333 _3_ RTR  --- 0 AODV 48 [0 ffffffff 25 800] ------- [37:255 -1:255 27 0] [0x2 4 1 [11 0] [5 4]] (REQUEST)
r 1.020633541 _6_ RTR  --- 0 AODV 48 [0 ffffffff 25 800] ------- [37:255 -1:255 27 0] [0x2 4 1 [11 0] [5 4]] (REQUEST)
r 1.020633563 _13_ RTR  --- 0 AODV 48 [0 ffffffff 25 800] ------- [37:255 -1:255 27 0] [0x2 4 1 [11 0] [5 4]] (REQUEST)
s 1.020961190 _8_ RTR  --- 0 AODV 48 [0 ffffffff 14 800] ------- [8:255 -1:255 26 0] [0x2 5 1 [11 0] [5 4]] (REQUEST)
r 1.021634538 _46_ RTR  --- 0 AODV 48 [0 ffffffff 2b 800] ------- [43:255 -1:255 26 0] [0x2 5 1 [11 0] [5 4]] (REQUEST)
r 1.021634562 _8_ RTR  --- 0 AODV 48 [0 ffffffff 2b 800] ------- [43:255 -1:255 26 0] [0x2 5 1 [11 0] [5 4]] (REQUEST)
r 1.021634660 _25_ RTR  --- 0 AODV 48 [0 ffffffff 2b 800] ------- [43:255 -1:255 26 0] [0x2 5 1 [11 0] [5 4]] (REQUEST)
r 1.021634671 _1_ RTR  --- 0 AODV 48 [0 ffffffff 2b 800] ------- [43:255 -1:255 26 0] [0x2 5 1 [11 0] [5 4]] (REQUEST)
r 1.021634757 _19_ RTR  --- 0 AODV 48 [0 ffffffff 2b 800] ------- [43:255 -1:255 26 0] [0x2 5 1 [11 0] [5 4]] (REQUEST)
r 1.021634834 _29_ RTR  --- 0 AODV 48 [0 ffffffff 2b 800] ------- [43:255 -1:255 26 0] [0x2 5 1 [11 0] [5 4]] (REQUEST)
r 1.021634958 _15_ RTR  --- 0 AODV 48 [0 ffffffff 2b 800] ------- [43:255 -1:255 26 0] [0x2 5 1 [11 0] [5 4]] (REQUEST)
r 1.021634960 _27_ RTR  --- 0 AODV 48 [0 ffffffff 2b 800] ------- [43:255 -1:255 26 0] [0x2 5 1 [11 0] [5 4]] (REQUEST)
r 1.021634993 _14_ RTR  --- 0 AODV 48 [0 ffffffff 2b 800] ------- [43:255 -1:255 26 0] [0x2 5 1 [11 0] [5 4]] (REQUEST)
r 1.021635100 _20_ RTR  --- 0 AODV 48 [0 ffffffff 2b 800] ------- [43:255 -1:255 26 0] [0x2 5 1 [11 0] [5 4]] (REQUEST)
r 1.021635185 _4_ RTR  --- 0 AODV 48 [0 ffffffff 2b 800] ------- [43:255 -1:255 26 0] [0x2 5 1 [11 0] [5 4]] (REQUEST)
r 1.022016323 _34_ RTR  --- 0 AODV 48 [0 ffffffff c 800] ------- [12:255 -1:255 28 0] [0x2 3 1 [11 0] [5 4]] (REQUEST)
r 1.022016354 _2_ RTR  --- 0 AODV 48 [0 ffffffff c 800] ------- [12:255 -1:255 28 0] [0x2 3 1 [11 0] [5 4]] (REQUEST)
r 1.022016375 _45_ RTR  --- 0 AODV 48 [0 ffffffff c 800] ------- [12:255 -1:255 28 0] [0x2 3 1 [11 0] [5 4]] (REQUEST)
r 1.022016505 _42_ RTR  --- 0 AODV 48 [0 ffffffff c 800] ------- [12:255 -1:255 28 0] [0x2 3 1 [11 0] [5 4]] (REQUEST)
r 1.022016617 _13_ RTR  --- 0 AODV 48 [0 ffffffff c 800] ------- [12:255 -1:255 28 0] [0x2 3 1 [11 0] [5 4]] (REQUEST)
s 1.022252624 _1_ RTR  --- 0 AODV 48 [0 ffffffff 14 800] ------- [1:255 -1:255 26 0] [0x2 5 1 [11 0] [5 4]] (REQUEST)
s 1.022583988 _10_ RTR  --- 0 AODV 48 [0 ffffffff 18 800] ------- [10:255 -1:255 27 0] [0x2 4 1 [11 0] [5 4]] (REQUEST)
r 1.022592889 _29_ RTR  --- 0 AODV 48 [0 ffffffff 13 800] ------- [19:255 -1:255 25 0] [0x2 6 1 [11 0] [5 4]] (REQUEST)
r 1.022593071 _25_ RTR  --- 0 AODV 48 [0 ffffffff 13 800] ------- [19:255 -1:255 25 0] [0x2 6 1 [11 0] [5 4]] (REQUEST)
r 1.022593097 _14_ RTR  --- 0 AODV 48 [0 ffffffff 13 800] ------- [19:255 -1:255 25 0] [0x2 6 1 [11 0] [5 4]] (REQUEST)
r 1.022593113 _43_ RTR  --- 0 AODV 48 [0 ffffffff 13 800] ------- [19:255 -1:255 25 0] [0x2 6 1 [11 0] [5 4]] (REQUEST)
r 1.022593205 _46_ RTR  --- 0 AODV 48 [0 ffffffff 13 800] ------- [19:255 -1:255 25 0] [0x2 6 1 [11 0] [5 4]] (REQUEST)
r 1.022593233 _1_ RTR  --- 0 AODV 48 [0 ffffffff 13 800] ------- [19:255 -1:255 25 0] [0x2 6 1 [11 0] [5 4]] (REQUEST)
r 1.022593272 _8_ RTR  --- 0 AODV 48 [0 ffffffff 13 800] ------- [19:255 -1:255 25 0] [0x2 6 1 [11 0] [5 4]] (REQUEST)
r 1.022593347 _15_ RTR  --- 0 AODV 48 [0 ffffffff 13 800] ------- [19:255 -1:255 25 0] [0x2 6 1 [11 0] [5 4]] (REQUEST)
r 1.022593439 _22_ RTR  --- 0 AODV 48 [0 ffffffff 13 800] ------- [19:255 -1:255 25 0] [0x2 6 1 [11 0] [5 4]] (REQUEST)
r 1.022593444 _4_ RTR  --- 0 AODV 48 [0 ffffffff 13 800] ------- [19:255 -1:255 25 0] [0x2 6 1 [11 0] [5 4]] (REQUEST)
r 1.022593580 _27_ RTR  --- 0 AODV 48 [0 ffffffff 13 800] ------- [19:255 -1:255 25 0] [0x2 6 1 [11 0] [5 4]] (REQUEST)
s 1.023085868 _29_ RTR  --- 0 AODV 48 [0 ffffffff f 800] ------- [29:255 -1:255 25 0] [0x2 6 1 [11 0] [5 4]] (REQUEST)
r 1.023791502 _43_ RTR  --- 0 AODV 48 [0 ffffffff 1 800] ------- [1:255 -1:255 26 0] [0x2 5 1 [11 0] [5 4]] (REQUEST)
r 1.023791552 _15_ RTR  --- 0 AODV 48 [0 ffffffff 1 800] ------- [1:255 -1:255 26 0] [0x2 5 1 [11 0] [5 4]] (REQUEST)
r 1.023791552 _8_ RTR  --- 0 AODV 48 [0 ffffffff 1 800] ------- [1:255 -1:255 26 0] [0x2 5 1 [11 0] [5 4]] (REQUEST)
r 1.023791613 _46_ RTR  --- 0 AODV 48 [0 ffffffff 1 800] ------- [1:255 -1:255 26 0] [0x2 5 1 [11 0] [5 4]] (REQUEST)
r 1.023791709 _19_ RTR  --- 0 AODV 48 [0 ffffffff 1 800] ------- [1:255 -1:255 26 0] [0x2 5 1 [11 0] [5 4]] (REQUEST)
r 1.023791750 _25_ RTR  --- 0 AODV 48 [0 ffffffff 1 800] ------- [1:255 -1:255 26 0] [0x2 5 1 [11 0] [5 4]] (REQUEST)
r 1.023791756 _20_ RTR  --- 0 AODV 48 [0 ffffffff 1 800] ------- [1:255 -1:255 26 0] [0x2 5 1 [11 0] [5 4]] (REQUEST)
r 1.023791779 _14_ RTR  --- 0 AODV 48 [0 ffffffff 1 800] ------- [1:255 -1:255 26 0] [0x2 5 1 [11 0] [5 4]] (REQUEST)
r 1.023791827 _29_ RTR  --- 0 AODV 48 [0 ffffffff 1 800] ------- [1:255 -1:255 26 0] [0x2 5 1 [11 0] [5 4]] (REQUEST)
r 1.023792006 _27_ RTR  --- 0 AODV 48 [0 ffffffff 1 800] ------- [1:255 -1:255 26 0] [0x2 5 1 [11 0] [5 4]] (REQUEST)
r 1.023792024 _22_ RTR  --- 0 AODV 48 [0 ffffffff 1 800] ------- [1:255 -1:255 26 0] [0x2 5 1 [11 0] [5 4]] (REQUEST)
r 1.024790119 _19_ RTR  --- 0 AODV 48 [0 ffffffff e 800] ------- [14:255 -1:255 25 0] [0x2 6 1 [11 0] [5 4]] (REQUEST)
r 1.024790122 _22_ RTR  --- 0 AODV 48 [0 ffffffff e 800] ------- [14:255 -1:255 25 0] [0x2 6 1 [11 0] [5 4]] (REQUEST)
r 1.024790210 _29_ RTR  --- 0 AODV 48 [0 ffffffff e 800] ------- [14:255 -1:255 25 0] [0x2 6 1 [11 0] [5 4]] (REQUEST)
r 1.024790231 _15_ RTR  --- 0 AODV 48 [0 ffffffff e 800] ------- [14:255 -1:255 25 0] [0x2 6 1 [11 0] [5 4]] (REQUEST)
r 1.024790326 _1_ RTR  --- 0 AODV 48 [0 ffffffff e 800] ------- [14:255 -1:255 25 0] [0x2 6 1 [11 0] [5 4]] (REQUEST)
r 1.024790371 _43_ RTR  --- 0 AODV 48 [0 ffffffff e 800] ------- [14:255 -1:255 25 0] [0x2 6 1 [11 0] [5 4]] (REQUEST)
r 1.024790424 _25_ RTR  --- 0 AODV 48 [0 ffffffff e 800] ------- [14:255 -1:255 25 0] [0x2 6 1 [11 0] [5 4]] (REQUEST)
r 1.024790497 _46_ RTR  --- 0 AODV 48 [0 ffffffff e 800] ------- [14:255 -1:255 25 0] [0x2 6 1 [11 0] [5 4]] (REQUEST)
r 1.024790523 _8_ RTR  --- 0 AODV 48 [0 ffffffff e 800] ------- [14:255 -1:255 25 0] [0x2 6 1 [11 0] [5 4]] (REQUEST)
s 1.025559672 _27_ RTR  --- 0 AODV 48 [0 ffffffff 19 800] ------- [27:255 -1:255 24 0] [0x2 7 1 [11 0] [5 4]] (REQUEST)
r 1.025828638 _46_ RTR  --- 0 AODV 48 [0 ffffffff 8 800] ------- [8:255 -1:255 26 0] [0x2 5 1 [11 0] [5 4]] (REQUEST)
r 1.025828684 _43_ RTR  --- 0 AODV 48 [0 ffffffff 8 800] ------- [8:255 -1:255 26 0] [0x2 5 1 [11 0] [5 4]] (REQUEST)
r 1.025828843 _1_ RTR  --- 0 AODV 48 [0 ffffffff 8 800] ------- [8:255 -1:255 26 0] [0x2 5 1 [11 0] [5 4]] (REQUEST)
r 1.025828872 _25_ RTR  --- 0 AODV 48 [0 ffffffff 8 800] ------- [8:255 -1:255 26 0] [0x2 5 1 [11 0] [5 4]] (REQUEST)
r 1.025828977 _27_ RTR  --- 0 AODV 48 [0 ffffffff 8 800] ------- [8:255 -1:255 26 0] [0x2 5 1 [11 0] [5 4]] (REQUEST)
r 1.025829038 _19_ RTR  --- 0 AODV 48 [0 ffffffff 8 800] ------- [8:255 -1:255 26 0] [0x2 5 1 [11 0] [5 4]] (REQUEST)
r 1.025829104 _29_ RTR  --- 0 AODV 48 [0 ffffffff 8 800] ------- [8:255 -1:255 26 0] [0x2 5 1 [11 0] [5 4]] (REQUEST)
r 1.025829137 _20_ RTR  --- 0 AODV 48 [0 ffffffff 8 800] ------- [8:255 -1:255 26 0] [0x2 5 1 [11 0] [5 4]] (REQUEST)
r 1.025829161 _15_ RTR  --- 0 AODV 48 [0 ffffffff 8 800] ------- [8:255 -1:255 26 0] [0x2 5 1 [11 0] [5 4]] (REQUEST)
r 1.025829267 _14_ RTR  --- 0 AODV 48 [0 ffffffff 8 800] ------- [8:255 -1:255 26 0] [0x2 5 1 [11 0] [5 4]] (REQUEST)
r 1.025829308 _10_ RTR  --- 0 AODV 48 [0 ffffffff 8 800] ------- [8:255 -1:255 26 0] [0x2 5 1 [11 0] [5 4]] (REQUEST)
r 1.026767553 _48_ RTR  --- 0 AODV 48 [0 ffffffff a 800] ------- [10:255 -1:255 27 0] [0x2 4 1 [11 0] [5 4]] (REQUEST)
r 1.026767689 _41_ RTR  --- 0 AODV 48 [0 ffffffff a 800] ------- [10:255 -1:255 27 0] [0x2 4 1 [11 0] [5 4]] (REQUEST)
r 1.026767825 _20_ RTR  --- 0 AODV 48 [0 ffffffff a 800] ------- [10:255 -1:255 27 0] [0x2 4 1 [11 0] [5 4]] (REQUEST)
r 1.026767949 _40_ RTR  --- 0 AODV 48 [0 ffffffff a 800] ------- [10:255 -1:255 27 0] [0x2 4 1 [11 0] [5 4]] (REQUEST)
r 1.026767949 _24_ RTR  --- 0 AODV 48 [0 ffffffff a 800] ------- [10:255 -1:255 27 0] [0x2 4 1 [11 0] [5 4]] (REQUEST)
r 1.026768093 _8_ RTR  --- 0 AODV 48 [0 ffffffff a 800] ------- [10:255 -1:255 27 0] [0x2 4 1 [11 0] [5 4]] (REQUEST)
r 1.026768138 _27_ RTR  --- 0 AODV 48 [0 ffffffff a 800] ------- [10:255 -1:255 27 0] [0x2 4 1 [11 0] [5 4]] (REQUEST)
s 1.026935509 _38_ RTR  --- 0 AODV 48 [0 ffffffff 9 800] ------- [38:255 -1:255 26 0] [0x2 5 1 [11 0] [5 4]] (REQUEST)
s 1.027056958 _4_ RTR  --- 0 AODV 48 [0 ffffffff 19 800] ------- [4:255 -1:255 24 0] [0x2 7 1 [11 0] [5 4]] (REQUEST)
r 1.027785798 _10_ RTR  --- 0 AODV 48 [0 ffffffff 30 800] ------- [48:255 -1:255 27 0] [0x2 4 1 [11 0] [5 4]] (REQUEST)
r 1.027785937 _41_ RTR  --- 0 AODV 48 [0 ffffffff 30 800] ------- [48:255 -1:255 27 0] [0x2 4 1 [11 0] [5 4]] (REQUEST)
r 1.027785975 _24_ RTR  --- 0 AODV 48 [0 ffffffff 30 800] ------- [48:255 -1:255 27 0] [0x2 4 1 [11 0] [5 4]] (REQUEST)
r 1.027786208 _40_ RTR  --- 0 AODV 48 [0 ffffffff 30 800] ------- [48:255 -1:255 27 0] [0x2 4 1 [11 0] [5 4]] (REQUEST)
r 1.027786346 _12_ RTR  --- 0 AODV 48 [0 ffffffff 30 800] ------- [48:255 -1:255 27 0] [0x2 4 1 [11 0] [5 4]] (REQUEST)
r 1.027786381 _47_ RTR  --- 0 AODV 48 [0 ffffffff 30 800] ------- [48:255 -1:255 27 0] [0x2 4 1 [11 0] [5 4]] (REQUEST)
r 1.027786560 _46_ RTR  --- 0 AODV 48 [0 ffffffff 1b 800] ------- [27:255 -1:255 24 0] [0x2 7 1 [11 0] [5 4]] (REQUEST)
r 1.027786617 _16_ RTR  --- 0 AODV 48 [0 ffffffff 1b 800] ------- [27:255 -1:255 24 0] [0x2 7 1 [11 0] [5 4]] (REQUEST)