s 1.000000000 _9_ AGT  --- 0 tcp 40 [0 0 0 0] ------- [9:0 1:0 32 0] [0 0] 0 0
r 1.000000000 _9_ RTR  --- 0 tcp 40 [0 0 0 0] ------- [9:0 1:0 32 0] [0 0] 0 0
s 1.000000000 _9_ RTR  --- 0 AODV 48 [0 0 0 0] ------- [9:255 -1:255 30 0] [0x2 1 1 [1 0] [9 4]] (REQUEST)
r 1.000988527 _7_ RTR  --- 0 AODV 48 [0 ffffffff 9 800] ------- [9:255 -1:255 30 0] [0x2 1 1 [1 0] [9 4]] (REQUEST)
r 1.000988590 _4_ RTR  --- 0 AODV 48 [0 ffffffff 9 800] ------- [9:255 -1:255 30 0] [0x2 1 1 [1 0] [9 4]] (REQUEST)
r 1.000988781 _5_ RTR  --- 0 AODV 48 [0 ffffffff 9 800] ------- [9:255 -1:255 30 0] [0x2 1 1 [1 0] [9 4]] (REQUEST)
s 1.001869753 _7_ RTR  --- 0 AODV 48 [0 ffffffff 9 800] ------- [7:255 -1:255 29 0] [0x2 2 1 [1 0] [9 4]] (REQUEST)
r 1.002978267 _4_ RTR  --- 0 AODV 48 [0 ffffffff 7 800] ------- [7:255 -1:255 29 0] [0x2 2 1 [1 0] [9 4]] (REQUEST)
r 1.002978280 _9_ RTR  --- 0 AODV 48 [0 ffffffff 7 800] ------- [7:255 -1:255 29 0] [0x2 2 1 [1 0] [9 4]] (REQUEST)
r 1.002978486 _8_ RTR  --- 0 AODV 48 [0 ffffffff 7 800] ------- [7:255 -1:255 29 0] [0x2 2 1 [1 0] [9 4]] (REQUEST)
s 1.005324503 _8_ RTR  --- 0 AODV 48 [0 ffffffff 7 800] ------- [8:255 -1:255 28 0] [0x2 3 1 [1 0] [9 4]] (REQUEST)
s 1.005400324 _4_ RTR  --- 0 AODV 48 [0 ffffffff 9 800] ------- [4:255 -1:255 29 0] [0x2 2 1 [1 0] [9 4]] (REQUEST)
r 1.006608838 _7_ RTR  --- 0 AODV 48 [0 ffffffff 4 800] ------- [4:255 -1:255 29 0] [0x2 2 1 [1 0] [9 4]] (REQUEST)
r 1.006608914 _9_ RTR  --- 0 AODV 48 [0 ffffffff 4 800] ------- [4:255 -1:255 29 0] [0x2 2 1 [1 0] [9 4]] (REQUEST)
r 1.006608942 _0_ RTR  --- 0 AODV 48 [0 ffffffff 4 800] ------- [4:255 -1:255 29 0] [0x2 2 1 [1 0] [9 4]] (REQUEST)
r 1.006608955 _8_ RTR  --- 0 AODV 48 [0 ffffffff 4 800] ------- [4:255 -1:255 29 0] [0x2 2 1 [1 0] [9 4]] (REQUEST)
r 1.006609031 _5_ RTR  --- 0 AODV 48 [0 ffffffff 4 800] ------- [4:255 -1:255 29 0] [0x2 2 1 [1 0] [9 4]] (REQUEST)
r 1.007547249 _0_ RTR  --- 0 AODV 48 [0 ffffffff 8 800] ------- [8:255 -1:255 28 0] [0x2 3 1 [1 0] [9 4]] (REQUEST)
r 1.007547585 _4_ RTR  --- 0 AODV 48 [0 ffffffff 8 800] ------- [8:255 -1:255 28 0] [0x2 3 1 [1 0] [9 4]] (REQUEST)
r 1.007547658 _3_ RTR  --- 0 AODV 48 [0 ffffffff 8 800] ------- [8:255 -1:255 28 0] [0x2 3 1 [1 0] [9 4]] (REQUEST)
r 1.007547687 _7_ RTR  --- 0 AODV 48 [0 ffffffff 8 800] ------- [8:255 -1:255 28 0] [0x2 3 1 [1 0] [9 4]] (REQUEST)
r 1.007547788 _1_ RTR  --- 0 AODV 48 [0 ffffffff 8 800] ------- [8:255 -1:255 28 0] [0x2 3 1 [1 0] [9 4]] (REQUEST)
s 1.007547788 _1_ RTR  --- 0 AODV 44 [0 0 0 0] ------- [1:255 9:255 30 8] [0x4 1 [1 4] 10.000000] (REPLY)
s 1.008250396 _0_ RTR  --- 0 AODV 48 [0 ffffffff 4 800] ------- [0:255 -1:255 28 0] [0x2 3 1 [1 0] [9 4]] (REQUEST)
s 1.008980336 _5_ RTR  --- 0 AODV 48 [0 ffffffff 9 800] ------- [5:255 -1:255 29 0] [0x2 2 1 [1 0] [9 4]] (REQUEST)
r 1.011546048 _8_ RTR  --- 0 AODV 48 [0 ffffffff 0 800] ------- [0:255 -1:255 28 0] [0x2 3 1 [1 0] [9 4]] (REQUEST)
r 1.011546258 _3_ RTR  --- 0 AODV 48 [0 ffffffff 0 800] ------- [0:255 -1:255 28 0] [0x2 3 1 [1 0] [9 4]] (REQUEST)
r 1.011546336 _2_ RTR  --- 0 AODV 48 [0 ffffffff 0 800] ------- [0:255 -1:255 28 0] [0x2 3 1 [1 0] [9 4]] (REQUEST)
r 1.011546372 _4_ RTR  --- 0 AODV 48 [0 ffffffff 0 800] ------- [0:255 -1:255 28 0] [0x2 3 1 [1 0] [9 4]] (REQUEST)
r 1.011546385 _1_ RTR  --- 0 AODV 48 [0 ffffffff 0 800] ------- [0:255 -1:255 28 0] [0x2 3 1 [1 0] [9 4]] (REQUEST)
r 1.011546417 _6_ RTR  --- 0 AODV 48 [0 ffffffff 0 800] ------- [0:255 -1:255 28 0] [0x2 3 1 [1 0] [9 4]] (REQUEST)
r 1.013350886 _8_ RTR  --- 0 AODV 44 [13a 8 1 800] ------- [1:255 9:255 30 8] [0x4 1 [1 4] 10.000000] (REPLY)
f 1.013350886 _8_ RTR  --- 0 AODV 44 [13a 8 1 800] ------- [1:255 9:255 29 7] [0x4 2 [1 4] 10.000000] (REPLY)
s 1.013948334 _3_ RTR  --- 0 AODV 48 [0 ffffffff 8 800] ------- [3:255 -1:255 27 0] [0x2 4 1 [1 0] [9 4]] (REQUEST)
s 1.014127215 _2_ RTR  --- 0 AODV 48 [0 ffffffff 0 800] ------- [2:255 -1:255 27 0] [0x2 4 1 [1 0] [9 4]] (REQUEST)
s 1.015633274 _6_ RTR  --- 0 AODV 48 [0 ffffffff 0 800] ------- [6:255 -1:255 27 0] [0x2 4 1 [1 0] [9 4]] (REQUEST)
r 1.015721719 _1_ RTR  --- 0 AODV 48 [0 ffffffff 3 800] ------- [3:255 -1:255 27 0] [0x2 4 1 [1 0] [9 4]] (REQUEST)
r 1.015721992 _2_ RTR  --- 0 AODV 48 [0 ffffffff 3 800] ------- [3:255 -1:255 27 0] [0x2 4 1 [1 0] [9 4]] (REQUEST)
r 1.015722093 _0_ RTR  --- 0 AODV 48 [0 ffffffff 3 800] ------- [3:255 -1:255 27 0] [0x2 4 1 [1 0] [9 4]] (REQUEST)
r 1.015722275 _6_ RTR  --- 0 AODV 48 [0 ffffffff 3 800] ------- [3:255 -1:255 27 0] [0x2 4 1 [1 0] [9 4]] (REQUEST)
r 1.015722291 _8_ RTR  --- 0 AODV 48 [0 ffffffff 3 800] ------- [3:255 -1:255 27 0] [0x2 4 1 [1 0] [9 4]] (REQUEST)
r 1.016980583 _2_ RTR  --- 0 AODV 48 [0 ffffffff 6 800] ------- [6:255 -1:255 27 0] [0x2 4 1 [1 0] [9 4]] (REQUEST)
r 1.016980938 _0_ RTR  --- 0 AODV 48 [0 ffffffff 6 800] ------- [6:255 -1:255 27 0] [0x2 4 1 [1 0] [9 4]] (REQUEST)
r 1.016980961 _3_ RTR  --- 0 AODV 48 [0 ffffffff 6 800] ------- [6:255 -1:255 27 0] [0x2 4 1 [1 0] [9 4]] (REQUEST)
r 1.016980993 _1_ RTR  --- 0 AODV 48 [0 ffffffff 6 800] ------- [6:255 -1:255 27 0] [0x2 4 1 [1 0] [9 4]] (REQUEST)
r 1.018098891 _6_ RTR  --- 0 AODV 48 [0 ffffffff 2 800] ------- [2:255 -1:255 27 0] [0x2 4 1 [1 0] [9 4]] (REQUEST)
r 1.018098986 _3_ RTR  --- 0 AODV 48 [0 ffffffff 2 800] ------- [2:255 -1:255 27 0] [0x2 4 1 [1 0] [9 4]] (REQUEST)
r 1.018098997 _1_ RTR  --- 0 AODV 48 [0 ffffffff 2 800] ------- [2:255 -1:255 27 0] [0x2 4 1 [1 0] [9 4]] (REQUEST)
r 1.018099165 _0_ RTR  --- 0 AODV 48 [0 ffffffff 2 800] ------- [2:255 -1:255 27 0] [0x2 4 1 [1 0] [9 4]] (REQUEST)
r 1.022258419 _7_ RTR  --- 0 AODV 44 [13a 7 8 800] ------- [1:255 9:255 29 7] [0x4 2 [1 4] 10.000000] (REPLY)
f 1.022258419 _7_ RTR  --- 0 AODV 44 [13a 7 8 800] ------- [1:255 9:255 28 9] [0x4 3 [1 4] 10.000000] (REPLY)
r 1.024954235 _4_ RTR  --- 0 AODV 48 [0 ffffffff 5 800] ------- [5:255 -1:255 29 0] [0x2 2 1 [1 0] [9 4]] (REQUEST)
r 1.024954309 _9_ RTR  --- 0 AODV 48 [0 ffffffff 5 800] ------- [5:255 -1:255 29 0] [0x2 2 1 [1 0] [9 4]] (REQUEST)
r 1.028487470 _9_ RTR  --- 0 AODV 44 [13a 9 7 800] ------- [1:255 9:255 28 9] [0x4 3 [1 4] 10.000000] (REPLY)
s 1.028487470 _9_ RTR  --- 0 tcp 40 [0 0 0 0] ------- [9:0 1:0 30 7] [0 0] 0 0
r 1.030713050 _7_ RTR  --- 0 tcp 40 [13a 7 9 800] ------- [9:0 1:0 30 7] [0 0] 1 0
f 1.030713050 _7_ RTR  --- 0 tcp 40 [13a 7 9 800] ------- [9:0 1:0 29 8] [0 0] 1 0
r 1.032659247 _8_ RTR  --- 0 tcp 40 [13a 8 7 800] ------- [9:0 1:0 29 8] [0 0] 2 0
f 1.032659247 _8_ RTR  --- 0 tcp 40 [13a 8 7 800] ------- [9:0 1:0 28 1] [0 0] 2 0
r 1.034985747 _1_ AGT  --- 0 tcp 40 [13a 1 8 800] ------- [9:0 1:0 28 1] [0 0] 3 0
s 1.034985747 _1_ AGT  --- 1 ack 40 [0 0 0 0] ------- [1:0 9:0 32 0] [0 0] 0 0
r 1.034985747 _1_ RTR  --- 1 ack 40 [0 0 0 0] ------- [1:0 9:0 32 0] [0 0] 0 0
s 1.034985747 _1_ RTR  --- 1 ack 40 [0 0 0 0] ------- [1:0 9:0 30 8] [0 0] 0 0
r 1.036992247 _8_ RTR  --- 1 ack 40 [13a 8 1 800] ------- [1:0 9:0 30 8] [0 0] 1 0
f 1.036992247 _8_ RTR  --- 1 ack 40 [13a 8 1 800] ------- [1:0 9:0 29 7] [0 0] 1 0
r 1.038938443 _7_ RTR  --- 1 ack 40 [13a 7 8 800] ------- [1:0 9:0 29 7] [0 0] 2 0
f 1.038938443 _7_ RTR  --- 1 ack 40 [13a 7 8 800] ------- [1:0 9:0 28 9] [0 0] 2 0
r 1.040764024 _9_ AGT  --- 1 ack 40 [13a 9 7 800] ------- [1:0 9:0 28 9] [0 0] 3 0
s 1.040764024 _9_ AGT  --- 2 tcp 1040 [0 0 0 0] ------- [9:0 1:0 32 0] [1 0] 0 0
r 1.040764024 _9_ RTR  --- 2 tcp 1040 [0 0 0 0] ------- [9:0 1:0 32 0] [1 0] 0 0
s 1.040764024 _9_ AGT  --- 3 tcp 1040 [0 0 0 0] ------- [9:0 1:0 32 0] [2 0] 0 0
r 1.040764024 _9_ RTR  --- 3 tcp 1040 [0 0 0 0] ------- [9:0 1:0 32 0] [2 0] 0 0
s 1.040764024 _9_ RTR  --- 2 tcp 1040 [0 0 0 0] ------- [9:0 1:0 30 7] [1 0] 0 0
s 1.040764024 _9_ RTR  --- 3 tcp 1040 [0 0 0 0] ------- [9:0 1:0 30 7] [2 0] 0 0
r 1.050709604 _7_ RTR  --- 2 tcp 1040 [13a 7 9 800] ------- [9:0 1:0 30 7] [1 0] 1 0
f 1.050709604 _7_ RTR  --- 2 tcp 1040 [13a 7 9 800] ------- [9:0 1:0 29 8] [1 0] 1 0
r 1.060695711 _7_ RTR  --- 3 tcp 1040 [13a 7 9 800] ------- [9:0 1:0 30 7] [2 0] 1 0
f 1.060695711 _7_ RTR  --- 3 tcp 1040 [13a 7 9 800] ------- [9:0 1:0 29 8] [2 0] 1 0
r 1.070581908 _8_ RTR  --- 2 tcp 1040 [13a 8 7 800] ------- [9:0 1:0 29 8] [1 0] 2 0
f 1.070581908 _8_ RTR  --- 2 tcp 1040 [13a 8 7 800] ------- [9:0 1:0 28 1] [1 0] 2 0
r 1.080488837 _8_ RTR  --- 3 tcp 1040 [13a 8 7 800] ------- [9:0 1:0 29 8] [2 0] 2 0
f 1.080488837 _8_ RTR  --- 3 tcp 1040 [13a 8 7 800] ------- [9:0 1:0 28 1] [2 0] 2 0
r 1.090355337 _1_ AGT  --- 2 tcp 1040 [13a 1 8 800] ------- [9:0 1:0 28 1] [1 0] 3 0
s 1.090355337 _1_ AGT  --- 4 ack 40 [0 0 0 0] ------- [1:0 9:0 32 0] [1 0] 0 0
r 1.090355337 _1_ RTR  --- 4 ack 40 [0 0 0 0] ------- [1:0 9:0 32 0] [1 0] 0 0
s 1.090355337 _1_ RTR  --- 4 ack 40 [0 0 0 0] ------- [1:0 9:0 30 8] [1 0] 0 0
r 1.100182670 _1_ AGT  --- 3 tcp 1040 [13a 1 8 800] ------- [9:0 1:0 28 1] [2 0] 3 0
s 1.100182670 _1_ AGT  --- 5 ack 40 [0 0 0 0] ------- [1:0 9:0 32 0] [2 0] 0 0
r 1.100182670 _1_ RTR  --- 5 ack 40 [0 0 0 0] ------- [1:0 9:0 32 0] [2 0] 0 0
s 1.100182670 _1_ RTR  --- 5 ack 40 [0 0 0 0] ------- [1:0 9:0 30 8] [2 0] 0 0
r 1.102369170 _8_ RTR  --- 4 ack 40 [13a 8 1 800] ------- [1:0 9:0 30 8] [1 0] 1 0
f 1.102369170 _8_ RTR  --- 4 ack 40 [13a 8 1 800] ------- [1:0 9:0 29 7] [1 0] 1 0
r 1.104476503 _8_ RTR  --- 5 ack 40 [13a 8 1 800] ------- [1:0 9:0 30 8] [2 0] 1 0
f 1.104476503 _8_ RTR  --- 5 ack 40 [13a 8 1 800] ------- [1:0 9:0 29 7] [2 0] 1 0
r 1.106322700 _7_ RTR  --- 4 ack 40 [13a 7 8 800] ------- [1:0 9:0 29 7] [1 0] 2 0
f 1.106322700 _7_ RTR  --- 4 ack 40 [13a 7 8 800] ------- [1:0 9:0 28 9] [1 0] 2 0
r 1.108208280 _9_ AGT  --- 4 ack 40 [13a 9 7 800] ------- [1:0 9:0 28 9] [1 0] 3 0
s 1.108208280 _9_ AGT  --- 6 tcp 1040 [0 0 0 0] ------- [9:0 1:0 32 0] [3 0] 0 0
r 1.108208280 _9_ RTR  --- 6 tcp 1040 [0 0 0 0] ------- [9:0 1:0 32 0] [3 0] 0 0
s 1.108208280 _9_ AGT  --- 7 tcp 1040 [0 0 0 0] ------- [9:0 1:0 32 0] [4 0] 0 0
r 1.108208280 _9_ RTR  --- 7 tcp 1040 [0 0 0 0] ------- [9:0 1:0 32 0] [4 0] 0 0
s 1.108208280 _9_ RTR  --- 6 tcp 1040 [0 0 0 0] ------- [9:0 1:0 30 7] [3 0] 0 0
s 1.108208280 _9_ RTR  --- 7 tcp 1040 [0 0 0 0] ------- [9:0 1:0 30 7] [4 0] 0 0
r 1.118213861 _7_ RTR  --- 6 tcp 1040 [13a 7 9 800] ------- [9:0 1:0 30 7] [3 0] 1 0
f 1.118213861 _7_ RTR  --- 6 tcp 1040 [13a 7 9 800] ------- [9:0 1:0 29 8] [3 0] 1 0
r 1.128120057 _8_ RTR  --- 6 tcp 1040 [13a 8 7 800] ------- [9:0 1:0 29 8] [3 0] 2 0
f 1.128120057 _8_ RTR  --- 6 tcp 1040 [13a 8 7 800] ------- [9:0 1:0 28 1] [3 0] 2 0
r 1.130366254 _7_ RTR  --- 5 ack 40 [13a 7 8 800] ------- [1:0 9:0 29 7] [2 0] 2 0
f 1.130366254 _7_ RTR  --- 5 ack 40 [13a 7 8 800] ------- [1:0 9:0 28 9] [2 0] 2 0
r 1.132231834 _9_ AGT  --- 5 ack 40 [13a 9 7 800] ------- [1:0 9:0 28 9] [2 0] 3 0
s 1.132231834 _9_ AGT  --- 8 tcp 1040 [0 0 0 0] ------- [9:0 1:0 32 0] [5 0] 0 0
r 1.132231834 _9_ RTR  --- 8 tcp 1040 [0 0 0 0] ------- [9:0 1:0 32 0] [5 0] 0 0
s 1.132231834 _9_ AGT  --- 9 tcp 1040 [0 0 0 0] ------- [9:0 1:0 32 0] [6 0] 0 0
r 1.132231834 _9_ RTR  --- 9 tcp 1040 [0 0 0 0] ------- [9:0 1:0 32 0] [6 0] 0 0
s 1.132231834 _9_ RTR  --- 8 tcp 1040 [0 0 0 0] ------- [9:0 1:0 30 7] [5 0] 0 0
s 1.132231834 _9_ RTR  --- 9 tcp 1040 [0 0 0 0] ------- [9:0 1:0 30 7] [6 0] 0 0
r 1.142077414 _7_ RTR  --- 7 tcp 1040 [13a 7 9 800] ------- [9:0 1:0 30 7] [4 0] 1 0
f 1.142077414 _7_ RTR  --- 7 tcp 1040 [13a 7 9 800] ------- [9:0 1:0 29 8] [4 0] 1 0
r 1.152023611 _8_ RTR  --- 7 tcp 1040 [13a 8 7 800] ------- [9:0 1:0 29 8] [4 0] 2 0
f 1.152023611 _8_ RTR  --- 7 tcp 1040 [13a 8 7 800] ------- [9:0 1:0 28 1] [4 0] 2 0
r 1.162230111 _1_ AGT  --- 6 tcp 1040 [13a 1 8 800] ------- [9:0 1:0 28 1] [3 0] 3 0
s 1.162230111 _1_ AGT  --- 10 ack 40 [0 0 0 0] ------- [1:0 9:0 32 0] [3 0] 0 0
r 1.162230111 _1_ RTR  --- 10 ack 40 [0 0 0 0] ------- [1:0 9:0 32 0] [3 0] 0 0
s 1.162230111 _1_ RTR  --- 10 ack 40 [0 0 0 0] ------- [1:0 9:0 30 8] [3 0] 0 0
r 1.164136611 _8_ RTR  --- 10 ack 40 [13a 8 1 800] ------- [1:0 9:0 30 8] [3 0] 1 0
f 1.164136611 _8_ RTR  --- 10 ack 40 [13a 8 1 800] ------- [1:0 9:0 29 7] [3 0] 1 0
r 1.174163111 _1_ AGT  --- 7 tcp 1040 [13a 1 8 800] ------- [9:0 1:0 28 1] [4 0] 3 0
s 1.174163111 _1_ AGT  --- 11 ack 40 [0 0 0 0] ------- [1:0 9:0 32 0] [4 0] 0 0
r 1.174163111 _1_ RTR  --- 11 ack 40 [0 0 0 0] ------- [1:0 9:0 32 0] [4 0] 0 0
s 1.174163111 _1_ RTR  --- 11 ack 40 [0 0 0 0] ------- [1:0 9:0 30 8] [4 0] 0 0
r 1.176049611 _8_ RTR  --- 11 ack 40 [13a 8 1 800] ------- [1:0 9:0 30 8] [4 0] 1 0
f 1.176049611 _8_ RTR  --- 11 ack 40 [13a 8 1 800] ------- [1:0 9:0 29 7] [4 0] 1 0
r 1.178175808 _7_ RTR  --- 10 ack 40 [13a 7 8 800] ------- [1:0 9:0 29 7] [3 0] 2 0
f 1.178175808 _7_ RTR  --- 10 ack 40 [13a 7 8 800] ------- [1:0 9:0 28 9] [3 0] 2 0
r 1.180062736 _7_ RTR  --- 11 ack 40 [13a 7 8 800] ------- [1:0 9:0 29 7] [4 0] 2 0
f 1.180062736 _7_ RTR  --- 11 ack 40 [13a 7 8 800] ------- [1:0 9:0 28 9] [4 0] 2 0
r 1.181948317 _9_ AGT  --- 10 ack 40 [13a 9 7 800] ------- [1:0 9:0 28 9] [3 0] 3 0
s 1.181948317 _9_ AGT  --- 12 tcp 1040 [0 0 0 0] ------- [9:0 1:0 32 0] [7 0] 0 0
r 1.181948317 _9_ RTR  --- 12 tcp 1040 [0 0 0 0] ------- [9:0 1:0 32 0] [7 0] 0 0
s 1.181948317 _9_ AGT  --- 13 tcp 1040 [0 0 0 0] ------- [9:0 1:0 32 0] [8 0] 0 0
r 1.181948317 _9_ RTR  --- 13 tcp 1040 [0 0 0 0] ------- [9:0 1:0 32 0] [8 0] 0 0
s 1.181948317 _9_ RTR  --- 12 tcp 1040 [0 0 0 0] ------- [9:0 1:0 30 7] [7 0] 0 0
s 1.181948317 _9_ RTR  --- 13 tcp 1040 [0 0 0 0] ------- [9:0 1:0 30 7] [8 0] 0 0
r 1.191873897 _7_ RTR  --- 8 tcp 1040 [13a 7 9 800] ------- [9:0 1:0 30 7] [5 0] 1 0
f 1.191873897 _7_ RTR  --- 8 tcp 1040 [13a 7 9 800] ------- [9:0 1:0 29 8] [5 0] 1 0
r 1.193739477 _9_ AGT  --- 11 ack 40 [13a 9 7 800] ------- [1:0 9:0 28 9] [4 0] 3 0
s 1.193739477 _9_ AGT  --- 14 tcp 1040 [0 0 0 0] ------- [9:0 1:0 32 0] [9 0] 0 0
r 1.193739477 _9_ RTR  --- 14 tcp 1040 [0 0 0 0] ------- [9:0 1:0 32 0] [9 0] 0 0
s 1.193739477 _9_ AGT  --- 15 tcp 1040 [0 0 0 0] ------- [9:0 1:0 32 0] [10 0] 0 0
r 1.193739477 _9_ RTR  --- 15 tcp 1040 [0 0 0 0] ------- [9:0 1:0 32 0] [10 0] 0 0
s 1.193739477 _9_ RTR  --- 14 tcp 1040 [0 0 0 0] ------- [9:0 1:0 30 7] [9 0] 0 0
s 1.193739477 _9_ RTR  --- 15 tcp 1040 [0 0 0 0] ------- [9:0 1:0 30 7] [10 0] 0 0
r 1.204006201 _8_ RTR  --- 8 tcp 1040 [13a 8 7 800] ------- [9:0 1:0 29 8] [5 0] 2 0
f 1.204006201 _8_ RTR  --- 8 tcp 1040 [13a 8 7 800] ------- [9:0 1:0 28 1] [5 0] 2 0
r 1.214312701 _1_ AGT  --- 8 tcp 1040 [13a 1 8 800] ------- [9:0 1:0 28 1] [5 0] 3 0
s 1.214312701 _1_ AGT  --- 16 ack 40 [0 0 0 0] ------- [1:0 9:0 32 0] [5 0] 0 0
r 1.214312701 _1_ RTR  --- 16 ack 40 [0 0 0 0] ------- [1:0 9:0 32 0] [5 0] 0 0
s 1.214312701 _1_ RTR  --- 16 ack 40 [0 0 0 0] ------- [1:0 9:0 30 8] [5 0] 0 0
r 1.216439201 _8_ RTR  --- 16 ack 40 [13a 8 1 800] ------- [1:0 9:0 30 8] [5 0] 1 0
f 1.216439201 _8_ RTR  --- 16 ack 40 [13a 8 1 800] ------- [1:0 9:0 29 7] [5 0] 1 0
r 1.218565397 _7_ RTR  --- 16 ack 40 [13a 7 8 800] ------- [1:0 9:0 29 7] [5 0] 2 0
f 1.218565397 _7_ RTR  --- 16 ack 40 [13a 7 8 800] ------- [1:0 9:0 28 9] [5 0] 2 0
r 1.220430978 _9_ AGT  --- 16 ack 40 [13a 9 7 800] ------- [1:0 9:0 28 9] [5 0] 3 0
s 1.220430978 _9_ AGT  --- 17 tcp 1040 [0 0 0 0] ------- [9:0 1:0 32 0] [11 0] 0 0
r 1.220430978 _9_ RTR  --- 17 tcp 1040 [0 0 0 0] ------- [9:0 1:0 32 0] [11 0] 0 0
s 1.220430978 _9_ AGT  --- 18 tcp 1040 [0 0 0 0] ------- [9:0 1:0 32 0] [12 0] 0 0
r 1.220430978 _9_ RTR  --- 18 tcp 1040 [0 0 0 0] ------- [9:0 1:0 32 0] [12 0] 0 0
s 1.220430978 _9_ RTR  --- 17 tcp 1040 [0 0 0 0] ------- [9:0 1:0 30 7] [11 0] 0 0
s 1.220430978 _9_ RTR  --- 18 tcp 1040 [0 0 0 0] ------- [9:0 1:0 30 7] [12 0] 0 0
r 1.230296558 _7_ RTR  --- 9 tcp 1040 [13a 7 9 800] ------- [9:0 1:0 30 7] [6 0] 1 0
f 1.230296558 _7_ RTR  --- 9 tcp 1040 [13a 7 9 800] ------- [9:0 1:0 29 8] [6 0] 1 0
r 1.240302665 _7_ RTR  --- 12 tcp 1040 [13a 7 9 800] ------- [9:0 1:0 30 7] [7 0] 1 0
f 1.240302665 _7_ RTR  --- 12 tcp 1040 [13a 7 9 800] ------- [9:0 1:0 29 8] [7 0] 1 0
r 1.250148862 _8_ RTR  --- 9 tcp 1040 [13a 8 7 800] ------- [9:0 1:0 29 8] [6 0] 2 0
f 1.250148862 _8_ RTR  --- 9 tcp 1040 [13a 8 7 800] ------- [9:0 1:0 28 1] [6 0] 2 0
r 1.261281701 _7_ RTR  --- 13 tcp 1040 [13a 7 9 800] ------- [9:0 1:0 30 7] [8 0] 1 0
f 1.261281701 _7_ RTR  --- 13 tcp 1040 [13a 7 9 800] ------- [9:0 1:0 29 8] [8 0] 1 0
r 1.271267808 _7_ RTR  --- 14 tcp 1040 [13a 7 9 800] ------- [9:0 1:0 30 7] [9 0] 1 0
f 1.271267808 _7_ RTR  --- 14 tcp 1040 [13a 7 9 800] ------- [9:0 1:0 29 8] [9 0] 1 0
r 1.281313915 _7_ RTR  --- 15 tcp 1040 [13a 7 9 800] ------- [9:0 1:0 30 7] [10 0] 1 0
f 1.281313915 _7_ RTR  --- 15 tcp 1040 [13a 7 9 800] ------- [9:0 1:0 29 8] [10 0] 1 0
r 1.291140022 _7_ RTR  --- 17 tcp 1040 [13a 7 9 800] ------- [9:0 1:0 30 7] [11 0] 1 0
f 1.291140022 _7_ RTR  --- 17 tcp 1040 [13a 7 9 800] ------- [9:0 1:0 29 8] [11 0] 1 0
r 1.301106129 _7_ RTR  --- 18 tcp 1040 [13a 7 9 800] ------- [9:0 1:0 30 7] [12 0] 1 0
f 1.301106129 _7_ RTR  --- 18 tcp 1040 [13a 7 9 800] ------- [9:0 1:0 29 8] [12 0] 1 0
r 1.311023232 _1_ AGT  --- 9 tcp 1040 [13a 1 8 800] ------- [9:0 1:0 28 1] [6 0] 3 0
s 1.311023232 _1_ AGT  --- 19 ack 40 [0 0 0 0] ------- [1:0 9:0 32 0] [6 0] 0 0
r 1.311023232 _1_ RTR  --- 19 ack 40 [0 0 0 0] ------- [1:0 9:0 32 0] [6 0] 0 0
s 1.311023232 _1_ RTR  --- 19 ack 40 [0 0 0 0] ------- [1:0 9:0 30 8] [6 0] 0 0
r 1.313169732 _8_ RTR  --- 19 ack 40 [13a 8 1 800] ------- [1:0 9:0 30 8] [6 0] 1 0
f 1.313169732 _8_ RTR  --- 19 ack 40 [13a 8 1 800] ------- [1:0 9:0 29 7] [6 0] 1 0
r 1.315115928 _7_ RTR  --- 19 ack 40 [13a 7 8 800] ------- [1:0 9:0 29 7] [6 0] 2 0
f 1.315115928 _7_ RTR  --- 19 ack 40 [13a 7 8 800] ------- [1:0 9:0 28 9] [6 0] 2 0
r 1.325322125 _8_ RTR  --- 12 tcp 1040 [13a 8 7 800] ------- [9:0 1:0 29 8] [7 0] 2 0
f 1.325322125 _8_ RTR  --- 12 tcp 1040 [13a 8 7 800] ------- [9:0 1:0 28 1] [7 0] 2 0
r 1.335169054 _8_ RTR  --- 13 tcp 1040 [13a 8 7 800] ------- [9:0 1:0 29 8] [8 0] 2 0
f 1.335169054 _8_ RTR  --- 13 tcp 1040 [13a 8 7 800] ------- [9:0 1:0 28 1] [8 0] 2 0
r 1.345135554 _1_ AGT  --- 12 tcp 1040 [13a 1 8 800] ------- [9:0 1:0 28 1] [7 0] 3 0
s 1.345135554 _1_ AGT  --- 20 ack 40 [0 0 0 0] ------- [1:0 9:0 32 0] [7 0] 0 0
r 1.345135554 _1_ RTR  --- 20 ack 40 [0 0 0 0] ------- [1:0 9:0 32 0] [7 0] 0 0
s 1.345135554 _1_ RTR  --- 20 ack 40 [0 0 0 0] ------- [1:0 9:0 30 8] [7 0] 0 0
r 1.355062887 _1_ AGT  --- 13 tcp 1040 [13a 1 8 800] ------- [9:0 1:0 28 1] [8 0] 3 0
s 1.355062887 _1_ AGT  --- 21 ack 40 [0 0 0 0] ------- [1:0 9:0 32 0] [8 0] 0 0
r 1.355062887 _1_ RTR  --- 21 ack 40 [0 0 0 0] ------- [1:0 9:0 32 0] [8 0] 0 0
s 1.355062887 _1_ RTR  --- 21 ack 40 [0 0 0 0] ------- [1:0 9:0 30 8] [8 0] 0 0
r 1.357109387 _8_ RTR  --- 20 ack 40 [13a 8 1 800] ------- [1:0 9:0 30 8] [7 0] 1 0
f 1.357109387 _8_ RTR  --- 20 ack 40 [13a 8 1 800] ------- [1:0 9:0 29 7] [7 0] 1 0
r 1.358995584 _7_ RTR  --- 20 ack 40 [13a 7 8 800] ------- [1:0 9:0 29 7] [7 0] 2 0
f 1.358995584 _7_ RTR  --- 20 ack 40 [13a 7 8 800] ------- [1:0 9:0 28 9] [7 0] 2 0
r 1.368961780 _8_ RTR  --- 14 tcp 1040 [13a 8 7 800] ------- [9:0 1:0 29 8] [9 0] 2 0
f 1.368961780 _8_ RTR  --- 14 tcp 1040 [13a 8 7 800] ------- [9:0 1:0 28 1] [9 0] 2 0
r 1.379208709 _8_ RTR  --- 15 tcp 1040 [13a 8 7 800] ------- [9:0 1:0 29 8] [10 0] 2 0
f 1.379208709 _8_ RTR  --- 15 tcp 1040 [13a 8 7 800] ------- [9:0 1:0 28 1] [10 0] 2 0
r 1.389055638 _8_ RTR  --- 17 tcp 1040 [13a 8 7 800] ------- [9:0 1:0 29 8] [11 0] 2 0
f 1.389055638 _8_ RTR  --- 17 tcp 1040 [13a 8 7 800] ------- [9:0 1:0 28 1] [11 0] 2 0
r 1.398902567 _8_ RTR  --- 18 tcp 1040 [13a 8 7 800] ------- [9:0 1:0 29 8] [12 0] 2 0
f 1.398902567 _8_ RTR  --- 18 tcp 1040 [13a 8 7 800] ------- [9:0 1:0 28 1] [12 0] 2 0
r 1.408749067 _1_ AGT  --- 14 tcp 1040 [13a 1 8 800] ------- [9:0 1:0 28 1] [9 0] 3 0
s 1.408749067 _1_ AGT  --- 22 ack 40 [0 0 0 0] ------- [1:0 9:0 32 0] [9 0] 0 0
r 1.408749067 _1_ RTR  --- 22 ack 40 [0 0 0 0] ------- [1:0 9:0 32 0] [9 0] 0 0
s 1.408749067 _1_ RTR  --- 22 ack 40 [0 0 0 0] ------- [1:0 9:0 30 8] [9 0] 0 0
r 1.410695567 _8_ RTR  --- 21 ack 40 [13a 8 1 800] ------- [1:0 9:0 30 8] [8 0] 1 0
f 1.410695567 _8_ RTR  --- 21 ack 40 [13a 8 1 800] ------- [1:0 9:0 29 7] [8 0] 1 0
r 1.412542900 _8_ RTR  --- 22 ack 40 [13a 8 1 800] ------- [1:0 9:0 30 8] [9 0] 1 0
f 1.412542900 _8_ RTR  --- 22 ack 40 [13a 8 1 800] ------- [1:0 9:0 29 7] [9 0] 1 0
r 1.414479180 _9_ AGT  --- 19 ack 40 [13a 9 7 800] ------- [1:0 9:0 28 9] [6 0] 3 0
s 1.414479180 _9_ AGT  --- 23 tcp 1040 [0 0 0 0] ------- [9:0 1:0 32 0] [13 0] 0 0
r 1.414479180 _9_ RTR  --- 23 tcp 1040 [0 0 0 0] ------- [9:0 1:0 32 0] [13 0] 0 0
s 1.414479180 _9_ AGT  --- 24 tcp 1040 [0 0 0 0] ------- [9:0 1:0 32 0] [14 0] 0 0
r 1.414479180 _9_ RTR  --- 24 tcp 1040 [0 0 0 0] ------- [9:0 1:0 32 0] [14 0] 0 0
s 1.414479180 _9_ RTR  --- 23 tcp 1040 [0 0 0 0] ------- [9:0 1:0 30 7] [13 0] 0 0
s 1.414479180 _9_ RTR  --- 24 tcp 1040 [0 0 0 0] ------- [9:0 1:0 30 7] [14 0] 0 0
r 1.424684760 _7_ RTR  --- 23 tcp 1040 [13a 7 9 800] ------- [9:0 1:0 30 7] [13 0] 1 0
f 1.424684760 _7_ RTR  --- 23 tcp 1040 [13a 7 9 800] ------- [9:0 1:0 29 8] [13 0] 1 0
r 1.426590340 _9_ AGT  --- 20 ack 40 [13a 9 7 800] ------- [1:0 9:0 28 9] [7 0] 3 0
s 1.426590340 _9_ AGT  --- 25 tcp 1040 [0 0 0 0] ------- [9:0 1:0 32 0] [15 0] 0 0
r 1.426590340 _9_ RTR  --- 25 tcp 1040 [0 0 0 0] ------- [9:0 1:0 32 0] [15 0] 0 0
s 1.426590340 _9_ AGT  --- 26 tcp 1040 [0 0 0 0] ------- [9:0 1:0 32 0] [16 0] 0 0
r 1.426590340 _9_ RTR  --- 26 tcp 1040 [0 0 0 0] ------- [9:0 1:0 32 0] [16 0] 0 0
s 1.426590340 _9_ RTR  --- 25 tcp 1040 [0 0 0 0] ------- [9:0 1:0 30 7] [15 0] 0 0
s 1.426590340 _9_ RTR  --- 26 tcp 1040 [0 0 0 0] ------- [9:0 1:0 30 7] [16 0] 0 0
r 1.436735921 _7_ RTR  --- 24 tcp 1040 [13a 7 9 800] ------- [9:0 1:0 30 7] [14 0] 1 0
f 1.436735921 _7_ RTR  --- 24 tcp 1040 [13a 7 9 800] ------- [9:0 1:0 29 8] [14 0] 1 0
r 1.446633023 _1_ AGT  --- 15 tcp 1040 [13a 1 8 800] ------- [9:0 1:0 28 1] [10 0] 3 0
s 1.446633023 _1_ AGT  --- 27 ack 40 [0 0 0 0] ------- [1:0 9:0 32 0] [10 0] 0 0
r 1.446633023 _1_ RTR  --- 27 ack 40 [0 0 0 0] ------- [1:0 9:0 32 0] [10 0] 0 0
s 1.446633023 _1_ RTR  --- 27 ack 40 [0 0 0 0] ------- [1:0 9:0 30 8] [10 0] 0 0
r 1.448639523 _8_ RTR  --- 27 ack 40 [13a 8 1 800] ------- [1:0 9:0 30 8] [10 0] 1 0
f 1.448639523 _8_ RTR  --- 27 ack 40 [13a 8 1 800] ------- [1:0 9:0 29 7] [10 0] 1 0
r 1.458636419 _8_ RTR  --- 23 tcp 1040 [13a 8 7 800] ------- [9:0 1:0 29 8] [13 0] 2 0
f 1.458636419 _8_ RTR  --- 23 tcp 1040 [13a 8 7 800] ------- [9:0 1:0 28 1] [13 0] 2 0
r 1.468603348 _8_ RTR  --- 24 tcp 1040 [13a 8 7 800] ------- [9:0 1:0 29 8] [14 0] 2 0
f 1.468603348 _8_ RTR  --- 24 tcp 1040 [13a 8 7 800] ------- [9:0 1:0 28 1] [14 0] 2 0
r 1.478509848 _1_ AGT  --- 17 tcp 1040 [13a 1 8 800] ------- [9:0 1:0 28 1] [11 0] 3 0
s 1.478509848 _1_ AGT  --- 28 ack 40 [0 0 0 0] ------- [1:0 9:0 32 0] [11 0] 0 0
r 1.478509848 _1_ RTR  --- 28 ack 40 [0 0 0 0] ------- [1:0 9:0 32 0] [11 0] 0 0
s 1.478509848 _1_ RTR  --- 28 ack 40 [0 0 0 0] ------- [1:0 9:0 30 8] [11 0] 0 0
r 1.480336348 _8_ RTR  --- 28 ack 40 [13a 8 1 800] ------- [1:0 9:0 30 8] [11 0] 1 0
f 1.480336348 _8_ RTR  --- 28 ack 40 [13a 8 1 800] ------- [1:0 9:0 29 7] [11 0] 1 0
r 1.490262848 _1_ AGT  --- 18 tcp 1040 [13a 1 8 800] ------- [9:0 1:0 28 1] [12 0] 3 0
s 1.490262848 _1_ AGT  --- 29 ack 40 [0 0 0 0] ------- [1:0 9:0 32 0] [12 0] 0 0
r 1.490262848 _1_ RTR  --- 29 ack 40 [0 0 0 0] ------- [1:0 9:0 32 0] [12 0] 0 0
s 1.490262848 _1_ RTR  --- 29 ack 40 [0 0 0 0] ------- [1:0 9:0 30 8] [12 0] 0 0
r 1.492629348 _8_ RTR  --- 29 ack 40 [13a 8 1 800] ------- [1:0 9:0 30 8] [12 0] 1 0
f 1.492629348 _8_ RTR  --- 29 ack 40 [13a 8 1 800] ------- [1:0 9:0 29 7] [12 0] 1 0
r 1.494495545 _7_ RTR  --- 21 ack 40 [13a 7 8 800] ------- [1:0 9:0 29 7] [8 0] 2 0
f 1.494495545 _7_ RTR  --- 21 ack 40 [13a 7 8 800] ------- [1:0 9:0 28 9] [8 0] 2 0
r 1.504471522 _7_ RTR  --- 25 tcp 1040 [13a 7 9 800] ------- [9:0 1:0 30 7] [15 0] 1 0
f 1.504471522 _7_ RTR  --- 25 tcp 1040 [13a 7 9 800] ------- [9:0 1:0 29 8] [15 0] 1 0
r 1.506428321 _7_ RTR  --- 22 ack 40 [13a 7 8 800] ------- [1:0 9:0 29 7] [9 0] 2 0
f 1.506428321 _7_ RTR  --- 22 ack 40 [13a 7 8 800] ------- [1:0 9:0 28 9] [9 0] 2 0
r 1.508395250 _7_ RTR  --- 27 ack 40 [13a 7 8 800] ------- [1:0 9:0 29 7] [10 0] 2 0
f 1.508395250 _7_ RTR  --- 27 ack 40 [13a 7 8 800] ------- [1:0 9:0 28 9] [10 0] 2 0
r 1.510400830 _9_ AGT  --- 21 ack 40 [13a 9 7 800] ------- [1:0 9:0 28 9] [8 0] 3 0
s 1.510400830 _9_ AGT  --- 30 tcp 1040 [0 0 0 0] ------- [9:0 1:0 32 0] [17 0] 0 0
r 1.510400830 _9_ RTR  --- 30 tcp 1040 [0 0 0 0] ------- [9:0 1:0 32 0] [17 0] 0 0
s 1.510400830 _9_ AGT  --- 31 tcp 1040 [0 0 0 0] ------- [9:0 1:0 32 0] [18 0] 0 0
r 1.510400830 _9_ RTR  --- 31 tcp 1040 [0 0 0 0] ------- [9:0 1:0 32 0] [18 0] 0 0
s 1.510400830 _9_ RTR  --- 30 tcp 1040 [0 0 0 0] ------- [9:0 1:0 30 7] [17 0] 0 0
s 1.510400830 _9_ RTR  --- 31 tcp 1040 [0 0 0 0] ------- [9:0 1:0 30 7] [18 0] 0 0
r 1.520426411 _7_ RTR  --- 26 tcp 1040 [13a 7 9 800] ------- [9:0 1:0 30 7] [16 0] 1 0
f 1.520426411 _7_ RTR  --- 26 tcp 1040 [13a 7 9 800] ------- [9:0 1:0 29 8] [16 0] 1 0
r 1.530352518 _7_ RTR  --- 30 tcp 1040 [13a 7 9 800] ------- [9:0 1:0 30 7] [17 0] 1 0
f 1.530352518 _7_ RTR  --- 30 tcp 1040 [13a 7 9 800] ------- [9:0 1:0 29 8] [17 0] 1 0
r 1.540269620 _1_ AGT  --- 23 tcp 1040 [13a 1 8 800] ------- [9:0 1:0 28 1] [13 0] 3 0
s 1.540269620 _1_ AGT  --- 32 ack 40 [0 0 0 0] ------- [1:0 9:0 32 0] [13 0] 0 0
r 1.540269620 _1_ RTR  --- 32 ack 40 [0 0 0 0] ------- [1:0 9:0 32 0] [13 0] 0 0
s 1.540269620 _1_ RTR  --- 32 ack 40 [0 0 0 0] ------- [1:0 9:0 30 8] [13 0] 0 0
r 1.550096954 _1_ AGT  --- 24 tcp 1040 [13a 1 8 800] ------- [9:0 1:0 28 1] [14 0] 3 0
s 1.550096954 _1_ AGT  --- 33 ack 40 [0 0 0 0] ------- [1:0 9:0 32 0] [14 0] 0 0
r 1.550096954 _1_ RTR  --- 33 ack 40 [0 0 0 0] ------- [1:0 9:0 32 0] [14 0] 0 0
s 1.550096954 _1_ RTR  --- 33 ack 40 [0 0 0 0] ------- [1:0 9:0 30 8] [14 0] 0 0
r 1.552303983 _7_ RTR  --- 28 ack 40 [13a 7 8 800] ------- [1:0 9:0 29 7] [11 0] 2 0
f 1.552303983 _7_ RTR  --- 28 ack 40 [13a 7 8 800] ------- [1:0 9:0 28 9] [11 0] 2 0
r 1.562279961 _7_ RTR  --- 31 tcp 1040 [13a 7 9 800] ------- [9:0 1:0 30 7] [18 0] 1 0
f 1.562279961 _7_ RTR  --- 31 tcp 1040 [13a 7 9 800] ------- [9:0 1:0 29 8] [18 0] 1 0
r 1.572126157 _8_ RTR  --- 25 tcp 1040 [13a 8 7 800] ------- [9:0 1:0 29 8] [15 0] 2 0
f 1.572126157 _8_ RTR  --- 25 tcp 1040 [13a 8 7 800] ------- [9:0 1:0 28 1] [15 0] 2 0
r 1.573952470 _9_ AGT  --- 22 ack 40 [13a 9 7 800] ------- [1:0 9:0 28 9] [9 0] 3 0
s 1.573952470 _9_ AGT  --- 34 tcp 1040 [0 0 0 0] ------- [9:0 1:0 32 0] [19 0] 0 0
r 1.573952470 _9_ RTR  --- 34 tcp 1040 [0 0 0 0] ------- [9:0 1:0 32 0] [19 0] 0 0
s 1.573952470 _9_ AGT  --- 35 tcp 1040 [0 0 0 0] ------- [9:0 1:0 32 0] [20 0] 0 0
r 1.573952470 _9_ RTR  --- 35 tcp 1040 [0 0 0 0] ------- [9:0 1:0 32 0] [20 0] 0 0
s 1.573952470 _9_ RTR  --- 34 tcp 1040 [0 0 0 0] ------- [9:0 1:0 30 7] [19 0] 0 0
s 1.573952470 _9_ RTR  --- 35 tcp 1040 [0 0 0 0] ------- [9:0 1:0 30 7] [20 0] 0 0
r 1.575898577 _9_ AGT  --- 27 ack 40 [13a 9 7 800] ------- [1:0 9:0 28 9] [10 0] 3 0
s 1.575898577 _9_ AGT  --- 36 tcp 1040 [0 0 0 0] ------- [9:0 1:0 32 0] [21 0] 0 0
r 1.575898577 _9_ RTR  --- 36 tcp 1040 [0 0 0 0] ------- [9:0 1:0 32 0] [21 0] 0 0
s 1.575898577 _9_ AGT  --- 37 tcp 1040 [0 0 0 0] ------- [9:0 1:0 32 0] [22 0] 0 0
r 1.575898577 _9_ RTR  --- 37 tcp 1040 [0 0 0 0] ------- [9:0 1:0 32 0] [22 0] 0 0
s 1.575898577 _9_ RTR  --- 36 tcp 1040 [0 0 0 0] ------- [9:0 1:0 30 7] [21 0] 0 0
s 1.575898577 _9_ RTR  --- 37 tcp 1040 [0 0 0 0] ------- [9:0 1:0 30 7] [22 0] 0 0
r 1.585844157 _7_ RTR  --- 34 tcp 1040 [13a 7 9 800] ------- [9:0 1:0 30 7] [19 0] 1 0
f 1.585844157 _7_ RTR  --- 34 tcp 1040 [13a 7 9 800] ------- [9:0 1:0 29 8] [19 0] 1 0
r 1.595830264 _7_ RTR  --- 35 tcp 1040 [13a 7 9 800] ------- [9:0 1:0 30 7] [20 0] 1 0
f 1.595830264 _7_ RTR  --- 35 tcp 1040 [13a 7 9 800] ------- [9:0 1:0 29 8] [20 0] 1 0
r 1.605756461 _8_ RTR  --- 26 tcp 1040 [13a 8 7 800] ------- [9:0 1:0 29 8] [16 0] 2 0
f 1.605756461 _8_ RTR  --- 26 tcp 1040 [13a 8 7 800] ------- [9:0 1:0 28 1] [16 0] 2 0
r 1.607802658 _7_ RTR  --- 29 ack 40 [13a 7 8 800] ------- [1:0 9:0 29 7] [12 0] 2 0
f 1.607802658 _7_ RTR  --- 29 ack 40 [13a 7 8 800] ------- [1:0 9:0 28 9] [12 0] 2 0
r 1.617769890 _1_ AGT  --- 25 tcp 1040 [13a 1 8 800] ------- [9:0 1:0 28 1] [15 0] 3 0
s 1.617769890 _1_ AGT  --- 38 ack 40 [0 0 0 0] ------- [1:0 9:0 32 0] [15 0] 0 0
r 1.617769890 _1_ RTR  --- 38 ack 40 [0 0 0 0] ------- [1:0 9:0 32 0] [15 0] 0 0
s 1.617769890 _1_ RTR  --- 38 ack 40 [0 0 0 0] ------- [1:0 9:0 30 8] [15 0] 0 0
r 1.619616390 _8_ RTR  --- 32 ack 40 [13a 8 1 800] ------- [1:0 9:0 30 8] [13 0] 1 0
f 1.619616390 _8_ RTR  --- 32 ack 40 [13a 8 1 800] ------- [1:0 9:0 29 7] [13 0] 1 0
r 1.629753286 _8_ RTR  --- 30 tcp 1040 [13a 8 7 800] ------- [9:0 1:0 29 8] [17 0] 2 0
f 1.629753286 _8_ RTR  --- 30 tcp 1040 [13a 8 7 800] ------- [9:0 1:0 28 1] [17 0] 2 0
r 1.631619598 _9_ AGT  --- 28 ack 40 [13a 9 7 800] ------- [1:0 9:0 28 9] [11 0] 3 0
s 1.631619598 _9_ AGT  --- 39 tcp 1040 [0 0 0 0] ------- [9:0 1:0 32 0] [23 0] 0 0
r 1.631619598 _9_ RTR  --- 39 tcp 1040 [0 0 0 0] ------- [9:0 1:0 32 0] [23 0] 0 0
s 1.631619598 _9_ AGT  --- 40 tcp 1040 [0 0 0 0] ------- [9:0 1:0 32 0] [24 0] 0 0
r 1.631619598 _9_ RTR  --- 40 tcp 1040 [0 0 0 0] ------- [9:0 1:0 32 0] [24 0] 0 0
s 1.631619598 _9_ RTR  --- 39 tcp 1040 [0 0 0 0] ------- [9:0 1:0 30 7] [23 0] 0 0
s 1.631619598 _9_ RTR  --- 40 tcp 1040 [0 0 0 0] ------- [9:0 1:0 30 7] [24 0] 0 0
r 1.641785179 _7_ RTR  --- 36 tcp 1040 [13a 7 9 800] ------- [9:0 1:0 30 7] [21 0] 1 0
f 1.641785179 _7_ RTR  --- 36 tcp 1040 [13a 7 9 800] ------- [9:0 1:0 29 8] [21 0] 1 0
r 1.651771375 _8_ RTR  --- 31 tcp 1040 [13a 8 7 800] ------- [9:0 1:0 29 8] [18 0] 2 0
f 1.651771375 _8_ RTR  --- 31 tcp 1040 [13a 8 7 800] ------- [9:0 1:0 28 1] [18 0] 2 0