s 0.000000000 _0_ RTR  --- 0 AODV 44 [0 0 0 0] ------- [0:255 -1:255 1 0] [0x1 1 [0 2] 4.000000] (HELLO)
s 0.000000000 _1_ RTR  --- 0 AODV 44 [0 0 0 0] ------- [1:255 -1:255 1 0] [0x1 1 [1 2] 4.000000] (HELLO)
s 0.000000000 _2_ RTR  --- 0 AODV 44 [0 0 0 0] ------- [2:255 -1:255 1 0] [0x1 1 [2 2] 4.000000] (HELLO)
s 0.000000000 _3_ RTR  --- 0 AODV 44 [0 0 0 0] ------- [3:255 -1:255 1 0] [0x1 1 [3 2] 4.000000] (HELLO)
s 0.000000000 _4_ RTR  --- 0 AODV 44 [0 0 0 0] ------- [4:255 -1:255 1 0] [0x1 1 [4 2] 4.000000] (HELLO)
s 0.000000000 _5_ RTR  --- 0 AODV 44 [0 0 0 0] ------- [5:255 -1:255 1 0] [0x1 1 [5 2] 4.000000] (HELLO)
s 0.000000000 _6_ RTR  --- 0 AODV 44 [0 0 0 0] ------- [6:255 -1:255 1 0] [0x1 1 [6 2] 4.000000] (HELLO)
s 0.000000000 _7_ RTR  --- 0 AODV 44 [0 0 0 0] ------- [7:255 -1:255 1 0] [0x1 1 [7 2] 4.000000] (HELLO)
s 0.000000000 _8_ RTR  --- 0 AODV 44 [0 0 0 0] ------- [8:255 -1:255 1 0] [0x1 1 [8 2] 4.000000] (HELLO)
s 0.000000000 _9_ RTR  --- 0 AODV 44 [0 0 0 0] ------- [9:255 -1:255 1 0] [0x1 1 [9 2] 4.000000] (HELLO)
r 0.000956131 _3_ RTR  --- 0 AODV 44 [0 ffffffff 1 800] ------- [1:255 -1:255 1 0] [0x1 1 [1 2] 4.000000] (HELLO)
r 0.000956414 _2_ RTR  --- 0 AODV 44 [0 ffffffff 1 800] ------- [1:255 -1:255 1 0] [0x1 1 [1 2] 4.000000] (HELLO)
r 0.000956632 _0_ RTR  --- 0 AODV 44 [0 ffffffff 1 800] ------- [1:255 -1:255 1 0] [0x1 1 [1 2] 4.000000] (HELLO)
r 0.000956718 _6_ RTR  --- 0 AODV 44 [0 ffffffff 1 800] ------- [1:255 -1:255 1 0] [0x1 1 [1 2] 4.000000] (HELLO)
r 0.000956833 _8_ RTR  --- 0 AODV 44 [0 ffffffff 1 800] ------- [1:255 -1:255 1 0] [0x1 1 [1 2] 4.000000] (HELLO)
r 0.001942262 _1_ RTR  --- 0 AODV 44 [0 ffffffff 3 800] ------- [3:255 -1:255 1 0] [0x1 1 [3 2] 4.000000] (HELLO)
r 0.003253676 _8_ RTR  --- 0 AODV 44 [0 ffffffff 0 800] ------- [0:255 -1:255 1 0] [0x1 1 [0 2] 4.000000] (HELLO)
r 0.003253887 _3_ RTR  --- 0 AODV 44 [0 ffffffff 0 800] ------- [0:255 -1:255 1 0] [0x1 1 [0 2] 4.000000] (HELLO)
r 0.003253964 _2_ RTR  --- 0 AODV 44 [0 ffffffff 0 800] ------- [0:255 -1:255 1 0] [0x1 1 [0 2] 4.000000] (HELLO)
r 0.003254000 _4_ RTR  --- 0 AODV 44 [0 ffffffff 0 800] ------- [0:255 -1:255 1 0] [0x1 1 [0 2] 4.000000] (HELLO)
r 0.003254014 _1_ RTR  --- 0 AODV 44 [0 ffffffff 0 800] ------- [0:255 -1:255 1 0] [0x1 1 [0 2] 4.000000] (HELLO)
r 0.003254045 _6_ RTR  --- 0 AODV 44 [0 ffffffff 0 800] ------- [0:255 -1:255 1 0] [0x1 1 [0 2] 4.000000] (HELLO)
r 0.004219971 _0_ RTR  --- 0 AODV 44 [0 ffffffff 8 800] ------- [8:255 -1:255 1 0] [0x1 1 [8 2] 4.000000] (HELLO)
r 0.004220307 _4_ RTR  --- 0 AODV 44 [0 ffffffff 8 800] ------- [8:255 -1:255 1 0] [0x1 1 [8 2] 4.000000] (HELLO)
r 0.004220379 _3_ RTR  --- 0 AODV 44 [0 ffffffff 8 800] ------- [8:255 -1:255 1 0] [0x1 1 [8 2] 4.000000] (HELLO)
r 0.004220409 _7_ RTR  --- 0 AODV 44 [0 ffffffff 8 800] ------- [8:255 -1:255 1 0] [0x1 1 [8 2] 4.000000] (HELLO)
r 0.004220510 _1_ RTR  --- 0 AODV 44 [0 ffffffff 8 800] ------- [8:255 -1:255 1 0] [0x1 1 [8 2] 4.000000] (HELLO)
r 0.005226821 _7_ RTR  --- 0 AODV 44 [0 ffffffff 4 800] ------- [4:255 -1:255 1 0] [0x1 1 [4 2] 4.000000] (HELLO)
r 0.005226897 _9_ RTR  --- 0 AODV 44 [0 ffffffff 4 800] ------- [4:255 -1:255 1 0] [0x1 1 [4 2] 4.000000] (HELLO)
r 0.005226925 _0_ RTR  --- 0 AODV 44 [0 ffffffff 4 800] ------- [4:255 -1:255 1 0] [0x1 1 [4 2] 4.000000] (HELLO)
r 0.005226938 _8_ RTR  --- 0 AODV 44 [0 ffffffff 4 800] ------- [4:255 -1:255 1 0] [0x1 1 [4 2] 4.000000] (HELLO)
r 0.005227014 _5_ RTR  --- 0 AODV 44 [0 ffffffff 4 800] ------- [4:255 -1:255 1 0] [0x1 1 [4 2] 4.000000] (HELLO)
r 0.006213721 _4_ RTR  --- 0 AODV 44 [0 ffffffff 5 800] ------- [5:255 -1:255 1 0] [0x1 1 [5 2] 4.000000] (HELLO)
r 0.006213795 _9_ RTR  --- 0 AODV 44 [0 ffffffff 5 800] ------- [5:255 -1:255 1 0] [0x1 1 [5 2] 4.000000] (HELLO)
r 0.007160322 _7_ RTR  --- 0 AODV 44 [0 ffffffff 9 800] ------- [9:255 -1:255 1 0] [0x1 1 [9 2] 4.000000] (HELLO)
r 0.007160385 _4_ RTR  --- 0 AODV 44 [0 ffffffff 9 800] ------- [9:255 -1:255 1 0] [0x1 1 [9 2] 4.000000] (HELLO)
r 0.007160576 _5_ RTR  --- 0 AODV 44 [0 ffffffff 9 800] ------- [9:255 -1:255 1 0] [0x1 1 [9 2] 4.000000] (HELLO)
r 0.008126836 _4_ RTR  --- 0 AODV 44 [0 ffffffff 7 800] ------- [7:255 -1:255 1 0] [0x1 1 [7 2] 4.000000] (HELLO)
r 0.008126849 _9_ RTR  --- 0 AODV 44 [0 ffffffff 7 800] ------- [7:255 -1:255 1 0] [0x1 1 [7 2] 4.000000] (HELLO)
r 0.008127054 _8_ RTR  --- 0 AODV 44 [0 ffffffff 7 800] ------- [7:255 -1:255 1 0] [0x1 1 [7 2] 4.000000] (HELLO)
r 0.009558073 _6_ RTR  --- 0 AODV 44 [0 ffffffff 2 800] ------- [2:255 -1:255 1 0] [0x1 1 [2 2] 4.000000] (HELLO)
r 0.009558168 _3_ RTR  --- 0 AODV 44 [0 ffffffff 2 800] ------- [2:255 -1:255 1 0] [0x1 1 [2 2] 4.000000] (HELLO)
r 0.009558179 _1_ RTR  --- 0 AODV 44 [0 ffffffff 2 800] ------- [2:255 -1:255 1 0] [0x1 1 [2 2] 4.000000] (HELLO)
r 0.009558348 _0_ RTR  --- 0 AODV 44 [0 ffffffff 2 800] ------- [2:255 -1:255 1 0] [0x1 1 [2 2] 4.000000] (HELLO)
s 0.757102330 _1_ RTR  --- 0 AODV 44 [0 0 0 0] ------- [1:255 -1:255 1 0] [0x1 1 [1 10] 4.000000] (HELLO)
r 0.758318461 _3_ RTR  --- 0 AODV 44 [0 ffffffff 1 800] ------- [1:255 -1:255 1 0] [0x1 1 [1 10] 4.000000] (HELLO)
r 0.758318744 _2_ RTR  --- 0 AODV 44 [0 ffffffff 1 800] ------- [1:255 -1:255 1 0] [0x1 1 [1 10] 4.000000] (HELLO)
r 0.758318962 _0_ RTR  --- 0 AODV 44 [0 ffffffff 1 800] ------- [1:255 -1:255 1 0] [0x1 1 [1 10] 4.000000] (HELLO)
r 0.758319048 _6_ RTR  --- 0 AODV 44 [0 ffffffff 1 800] ------- [1:255 -1:255 1 0] [0x1 1 [1 10] 4.000000] (HELLO)
r 0.758319164 _8_ RTR  --- 0 AODV 44 [0 ffffffff 1 800] ------- [1:255 -1:255 1 0] [0x1 1 [1 10] 4.000000] (HELLO)
s 0.794061336 _2_ RTR  --- 0 AODV 44 [0 0 0 0] ------- [2:255 -1:255 1 0] [0x1 1 [2 6] 4.000000] (HELLO)
r 0.795057644 _6_ RTR  --- 0 AODV 44 [0 ffffffff 2 800] ------- [2:255 -1:255 1 0] [0x1 1 [2 6] 4.000000] (HELLO)
r 0.795057739 _3_ RTR  --- 0 AODV 44 [0 ffffffff 2 800] ------- [2:255 -1:255 1 0] [0x1 1 [2 6] 4.000000] (HELLO)
r 0.795057750 _1_ RTR  --- 0 AODV 44 [0 ffffffff 2 800] ------- [2:255 -1:255 1 0] [0x1 1 [2 6] 4.000000] (HELLO)
r 0.795057918 _0_ RTR  --- 0 AODV 44 [0 ffffffff 2 800] ------- [2:255 -1:255 1 0] [0x1 1 [2 6] 4.000000] (HELLO)
s 0.867300876 _7_ RTR  --- 0 AODV 44 [0 0 0 0] ------- [7:255 -1:255 1 0] [0x1 1 [7 8] 4.000000] (HELLO)
r 0.868317390 _4_ RTR  --- 0 AODV 44 [0 ffffffff 7 800] ------- [7:255 -1:255 1 0] [0x1 1 [7 8] 4.000000] (HELLO)
r 0.868317403 _9_ RTR  --- 0 AODV 44 [0 ffffffff 7 800] ------- [7:255 -1:255 1 0] [0x1 1 [7 8] 4.000000] (HELLO)
r 0.868317608 _8_ RTR  --- 0 AODV 44 [0 ffffffff 7 800] ------- [7:255 -1:255 1 0] [0x1 1 [7 8] 4.000000] (HELLO)
s 0.904539529 _9_ RTR  --- 0 AODV 44 [0 0 0 0] ------- [9:255 -1:255 1 0] [0x1 1 [9 8] 4.000000] (HELLO)
r 0.905656056 _7_ RTR  --- 0 AODV 44 [0 ffffffff 9 800] ------- [9:255 -1:255 1 0] [0x1 1 [9 8] 4.000000] (HELLO)
r 0.905656119 _4_ RTR  --- 0 AODV 44 [0 ffffffff 9 800] ------- [9:255 -1:255 1 0] [0x1 1 [9 8] 4.000000] (HELLO)
r 0.905656310 _5_ RTR  --- 0 AODV 44 [0 ffffffff 9 800] ------- [9:255 -1:255 1 0] [0x1 1 [9 8] 4.000000] (HELLO)
s 0.906480886 _5_ RTR  --- 0 AODV 44 [0 0 0 0] ------- [5:255 -1:255 1 0] [0x1 1 [5 6] 4.000000] (HELLO)
r 0.907517593 _4_ RTR  --- 0 AODV 44 [0 ffffffff 5 800] ------- [5:255 -1:255 1 0] [0x1 1 [5 6] 4.000000] (HELLO)
r 0.907517667 _9_ RTR  --- 0 AODV 44 [0 ffffffff 5 800] ------- [5:255 -1:255 1 0] [0x1 1 [5 6] 4.000000] (HELLO)
s 0.970586691 _3_ RTR  --- 0 AODV 44 [0 0 0 0] ------- [3:255 -1:255 1 0] [0x1 1 [3 10] 4.000000] (HELLO)
r 0.971782822 _1_ RTR  --- 0 AODV 44 [0 ffffffff 3 800] ------- [3:255 -1:255 1 0] [0x1 1 [3 10] 4.000000] (HELLO)
r 0.971783094 _2_ RTR  --- 0 AODV 44 [0 ffffffff 3 800] ------- [3:255 -1:255 1 0] [0x1 1 [3 10] 4.000000] (HELLO)
r 0.971783196 _0_ RTR  --- 0 AODV 44 [0 ffffffff 3 800] ------- [3:255 -1:255 1 0] [0x1 1 [3 10] 4.000000] (HELLO)
r 0.971783377 _6_ RTR  --- 0 AODV 44 [0 ffffffff 3 800] ------- [3:255 -1:255 1 0] [0x1 1 [3 10] 4.000000] (HELLO)
r 0.971783394 _8_ RTR  --- 0 AODV 44 [0 ffffffff 3 800] ------- [3:255 -1:255 1 0] [0x1 1 [3 10] 4.000000] (HELLO)
s 1.000000000 _9_ AGT  --- 0 tcp 40 [0 0 0 0] ------- [9:0 1:0 32 0] [0 0] 0 0
r 1.000000000 _9_ RTR  --- 0 tcp 40 [0 0 0 0] ------- [9:0 1:0 32 0] [0 0] 0 0
s 1.000000000 _9_ RTR  --- 0 AODV 48 [0 0 0 0] ------- [9:255 -1:255 30 0] [0x2 1 -1 [1 0] [9 10]] (REQUEST)
r 1.001228527 _7_ RTR  --- 0 AODV 48 [0 ffffffff 9 800] ------- [9:255 -1:255 30 0] [0x2 1 -1 [1 0] [9 10]] (REQUEST)
r 1.001228590 _4_ RTR  --- 0 AODV 48 [0 ffffffff 9 800] ------- [9:255 -1:255 30 0] [0x2 1 -1 [1 0] [9 10]] (REQUEST)
r 1.001228781 _5_ RTR  --- 0 AODV 48 [0 ffffffff 9 800] ------- [9:255 -1:255 30 0] [0x2 1 -1 [1 0] [9 10]] (REQUEST)
s 1.003847023 _5_ RTR  --- 0 AODV 48 [0 ffffffff 9 800] ------- [5:255 -1:255 29 0] [0x2 2 -1 [1 0] [9 10]] (REQUEST)
r 1.004955730 _4_ RTR  --- 0 AODV 48 [0 ffffffff 5 800] ------- [5:255 -1:255 29 0] [0x2 2 -1 [1 0] [9 10]] (REQUEST)
r 1.004955804 _9_ RTR  --- 0 AODV 48 [0 ffffffff 5 800] ------- [5:255 -1:255 29 0] [0x2 2 -1 [1 0] [9 10]] (REQUEST)
s 1.006676746 _7_ RTR  --- 0 AODV 48 [0 ffffffff 9 800] ------- [7:255 -1:255 29 0] [0x2 2 -1 [1 0] [9 10]] (REQUEST)
r 1.007705260 _4_ RTR  --- 0 AODV 48 [0 ffffffff 7 800] ------- [7:255 -1:255 29 0] [0x2 2 -1 [1 0] [9 10]] (REQUEST)
r 1.007705273 _9_ RTR  --- 0 AODV 48 [0 ffffffff 7 800] ------- [7:255 -1:255 29 0] [0x2 2 -1 [1 0] [9 10]] (REQUEST)
r 1.007705479 _8_ RTR  --- 0 AODV 48 [0 ffffffff 7 800] ------- [7:255 -1:255 29 0] [0x2 2 -1 [1 0] [9 10]] (REQUEST)
s 1.009567621 _8_ RTR  --- 0 AODV 48 [0 ffffffff 7 800] ------- [8:255 -1:255 28 0] [0x2 3 -1 [1 0] [9 10]] (REQUEST)
s 1.009995147 _4_ RTR  --- 0 AODV 48 [0 ffffffff 9 800] ------- [4:255 -1:255 29 0] [0x2 2 -1 [1 0] [9 10]] (REQUEST)
r 1.010755916 _0_ RTR  --- 0 AODV 48 [0 ffffffff 8 800] ------- [8:255 -1:255 28 0] [0x2 3 -1 [1 0] [9 10]] (REQUEST)
r 1.010756252 _4_ RTR  --- 0 AODV 48 [0 ffffffff 8 800] ------- [8:255 -1:255 28 0] [0x2 3 -1 [1 0] [9 10]] (REQUEST)
r 1.010756324 _3_ RTR  --- 0 AODV 48 [0 ffffffff 8 800] ------- [8:255 -1:255 28 0] [0x2 3 -1 [1 0] [9 10]] (REQUEST)
r 1.010756353 _7_ RTR  --- 0 AODV 48 [0 ffffffff 8 800] ------- [8:255 -1:255 28 0] [0x2 3 -1 [1 0] [9 10]] (REQUEST)
r 1.010756455 _1_ RTR  --- 0 AODV 48 [0 ffffffff 8 800] ------- [8:255 -1:255 28 0] [0x2 3 -1 [1 0] [9 10]] (REQUEST)
s 1.010756455 _1_ RTR  --- 0 AODV 44 [0 0 0 0] ------- [1:255 9:255 30 8] [0x4 1 [1 12] 10.000000] (REPLY)
s 1.012823256 _0_ RTR  --- 0 AODV 48 [0 ffffffff 8 800] ------- [0:255 -1:255 27 0] [0x2 4 -1 [1 0] [9 10]] (REQUEST)
r 1.015160288 _8_ RTR  --- 0 AODV 44 [13a 8 1 800] ------- [1:255 9:255 30 8] [0x4 1 [1 12] 10.000000] (REPLY)
f 1.015160288 _8_ RTR  --- 0 AODV 44 [13a 8 1 800] ------- [1:255 9:255 29 7] [0x4 2 [1 12] 10.000000] (REPLY)
r 1.016463194 _7_ RTR  --- 0 AODV 48 [0 ffffffff 4 800] ------- [4:255 -1:255 29 0] [0x2 2 -1 [1 0] [9 10]] (REQUEST)
r 1.016463270 _9_ RTR  --- 0 AODV 48 [0 ffffffff 4 800] ------- [4:255 -1:255 29 0] [0x2 2 -1 [1 0] [9 10]] (REQUEST)
r 1.016463299 _0_ RTR  --- 0 AODV 48 [0 ffffffff 4 800] ------- [4:255 -1:255 29 0] [0x2 2 -1 [1 0] [9 10]] (REQUEST)
r 1.016463311 _8_ RTR  --- 0 AODV 48 [0 ffffffff 4 800] ------- [4:255 -1:255 29 0] [0x2 2 -1 [1 0] [9 10]] (REQUEST)
r 1.016463387 _5_ RTR  --- 0 AODV 48 [0 ffffffff 4 800] ------- [4:255 -1:255 29 0] [0x2 2 -1 [1 0] [9 10]] (REQUEST)
r 1.017501593 _8_ RTR  --- 0 AODV 48 [0 ffffffff 0 800] ------- [0:255 -1:255 27 0] [0x2 4 -1 [1 0] [9 10]] (REQUEST)
r 1.017501803 _3_ RTR  --- 0 AODV 48 [0 ffffffff 0 800] ------- [0:255 -1:255 27 0] [0x2 4 -1 [1 0] [9 10]] (REQUEST)
r 1.017501881 _2_ RTR  --- 0 AODV 48 [0 ffffffff 0 800] ------- [0:255 -1:255 27 0] [0x2 4 -1 [1 0] [9 10]] (REQUEST)
r 1.017501917 _4_ RTR  --- 0 AODV 48 [0 ffffffff 0 800] ------- [0:255 -1:255 27 0] [0x2 4 -1 [1 0] [9 10]] (REQUEST)
r 1.017501931 _1_ RTR  --- 0 AODV 48 [0 ffffffff 0 800] ------- [0:255 -1:255 27 0] [0x2 4 -1 [1 0] [9 10]] (REQUEST)
r 1.017501962 _6_ RTR  --- 0 AODV 48 [0 ffffffff 0 800] ------- [0:255 -1:255 27 0] [0x2 4 -1 [1 0] [9 10]] (REQUEST)
s 1.017705697 _3_ RTR  --- 0 AODV 48 [0 ffffffff 8 800] ------- [3:255 -1:255 27 0] [0x2 4 -1 [1 0] [9 10]] (REQUEST)
s 1.018383964 _6_ RTR  --- 0 AODV 48 [0 ffffffff 0 800] ------- [6:255 -1:255 26 0] [0x2 5 -1 [1 0] [9 10]] (REQUEST)
r 1.019578427 _1_ RTR  --- 0 AODV 48 [0 ffffffff 3 800] ------- [3:255 -1:255 27 0] [0x2 4 -1 [1 0] [9 10]] (REQUEST)
r 1.019578699 _2_ RTR  --- 0 AODV 48 [0 ffffffff 3 800] ------- [3:255 -1:255 27 0] [0x2 4 -1 [1 0] [9 10]] (REQUEST)
r 1.019578801 _0_ RTR  --- 0 AODV 48 [0 ffffffff 3 800] ------- [3:255 -1:255 27 0] [0x2 4 -1 [1 0] [9 10]] (REQUEST)
r 1.019578982 _6_ RTR  --- 0 AODV 48 [0 ffffffff 3 800] ------- [3:255 -1:255 27 0] [0x2 4 -1 [1 0] [9 10]] (REQUEST)
r 1.019578999 _8_ RTR  --- 0 AODV 48 [0 ffffffff 3 800] ------- [3:255 -1:255 27 0] [0x2 4 -1 [1 0] [9 10]] (REQUEST)
r 1.020537290 _2_ RTR  --- 0 AODV 48 [0 ffffffff 6 800] ------- [6:255 -1:255 26 0] [0x2 5 -1 [1 0] [9 10]] (REQUEST)
r 1.020537646 _0_ RTR  --- 0 AODV 48 [0 ffffffff 6 800] ------- [6:255 -1:255 26 0] [0x2 5 -1 [1 0] [9 10]] (REQUEST)
r 1.020537668 _3_ RTR  --- 0 AODV 48 [0 ffffffff 6 800] ------- [6:255 -1:255 26 0] [0x2 5 -1 [1 0] [9 10]] (REQUEST)
r 1.020537700 _1_ RTR  --- 0 AODV 48 [0 ffffffff 6 800] ------- [6:255 -1:255 26 0] [0x2 5 -1 [1 0] [9 10]] (REQUEST)
s 1.021714082 _2_ RTR  --- 0 AODV 48 [0 ffffffff 0 800] ------- [2:255 -1:255 26 0] [0x2 5 -1 [1 0] [9 10]] (REQUEST)
r 1.024716761 _7_ RTR  --- 0 AODV 44 [13a 7 8 800] ------- [1:255 9:255 29 7] [0x4 2 [1 12] 10.000000] (REPLY)
f 1.024716761 _7_ RTR  --- 0 AODV 44 [13a 7 8 800] ------- [1:255 9:255 28 9] [0x4 3 [1 12] 10.000000] (REPLY)
s 1.027940358 _0_ RTR  --- 0 AODV 44 [0 0 0 0] ------- [0:255 -1:255 1 0] [0x1 1 [0 12] 4.000000] (HELLO)
r 1.030087448 _9_ RTR  --- 0 AODV 44 [13a 9 7 800] ------- [1:255 9:255 28 9] [0x4 3 [1 12] 10.000000] (REPLY)
s 1.030087448 _9_ RTR  --- 0 tcp 40 [0 0 0 0] ------- [9:0 1:0 30 7] [0 0] 0 0
r 1.032033028 _7_ RTR  --- 0 tcp 40 [13a 7 9 800] ------- [9:0 1:0 30 7] [0 0] 1 0
f 1.032033028 _7_ RTR  --- 0 tcp 40 [13a 7 9 800] ------- [9:0 1:0 29 8] [0 0] 1 0
r 1.034439225 _8_ RTR  --- 0 tcp 40 [13a 8 7 800] ------- [9:0 1:0 29 8] [0 0] 2 0
f 1.034439225 _8_ RTR  --- 0 tcp 40 [13a 8 7 800] ------- [9:0 1:0 28 1] [0 0] 2 0
r 1.035769694 _8_ RTR  --- 0 AODV 44 [0 ffffffff 0 800] ------- [0:255 -1:255 1 0] [0x1 1 [0 12] 4.000000] (HELLO)
r 1.035769904 _3_ RTR  --- 0 AODV 44 [0 ffffffff 0 800] ------- [0:255 -1:255 1 0] [0x1 1 [0 12] 4.000000] (HELLO)
r 1.035769982 _2_ RTR  --- 0 AODV 44 [0 ffffffff 0 800] ------- [0:255 -1:255 1 0] [0x1 1 [0 12] 4.000000] (HELLO)
r 1.035770018 _4_ RTR  --- 0 AODV 44 [0 ffffffff 0 800] ------- [0:255 -1:255 1 0] [0x1 1 [0 12] 4.000000] (HELLO)
r 1.035770032 _1_ RTR  --- 0 AODV 44 [0 ffffffff 0 800] ------- [0:255 -1:255 1 0] [0x1 1 [0 12] 4.000000] (HELLO)
r 1.035770063 _6_ RTR  --- 0 AODV 44 [0 ffffffff 0 800] ------- [0:255 -1:255 1 0] [0x1 1 [0 12] 4.000000] (HELLO)
r 1.037322194 _1_ AGT  --- 0 tcp 40 [13a 1 8 800] ------- [9:0 1:0 28 1] [0 0] 3 0
s 1.037322194 _1_ AGT  --- 1 ack 40 [0 0 0 0] ------- [1:0 9:0 32 0] [0 0] 0 0
r 1.037322194 _1_ RTR  --- 1 ack 40 [0 0 0 0] ------- [1:0 9:0 32 0] [0 0] 0 0
s 1.037322194 _1_ RTR  --- 1 ack 40 [0 0 0 0] ------- [1:0 9:0 30 8] [0 0] 0 0
r 1.038804538 _6_ RTR  --- 0 AODV 48 [0 ffffffff 2 800] ------- [2:255 -1:255 26 0] [0x2 5 -1 [1 0] [9 10]] (REQUEST)
r 1.038804633 _3_ RTR  --- 0 AODV 48 [0 ffffffff 2 800] ------- [2:255 -1:255 26 0] [0x2 5 -1 [1 0] [9 10]] (REQUEST)
r 1.038804644 _1_ RTR  --- 0 AODV 48 [0 ffffffff 2 800] ------- [2:255 -1:255 26 0] [0x2 5 -1 [1 0] [9 10]] (REQUEST)
r 1.038804813 _0_ RTR  --- 0 AODV 48 [0 ffffffff 2 800] ------- [2:255 -1:255 26 0] [0x2 5 -1 [1 0] [9 10]] (REQUEST)
r 1.040457144 _8_ RTR  --- 1 ack 40 [13a 8 1 800] ------- [1:0 9:0 30 8] [0 0] 1 0
f 1.040457144 _8_ RTR  --- 1 ack 40 [13a 8 1 800] ------- [1:0 9:0 29 7] [0 0] 1 0
r 1.042503341 _7_ RTR  --- 1 ack 40 [13a 7 8 800] ------- [1:0 9:0 29 7] [0 0] 2 0
f 1.042503341 _7_ RTR  --- 1 ack 40 [13a 7 8 800] ------- [1:0 9:0 28 9] [0 0] 2 0
r 1.044468921 _9_ AGT  --- 1 ack 40 [13a 9 7 800] ------- [1:0 9:0 28 9] [0 0] 3 0
s 1.044468921 _9_ AGT  --- 2 tcp 1040 [0 0 0 0] ------- [9:0 1:0 32 0] [1 0] 0 0
r 1.044468921 _9_ RTR  --- 2 tcp 1040 [0 0 0 0] ------- [9:0 1:0 32 0] [1 0] 0 0
s 1.044468921 _9_ AGT  --- 3 tcp 1040 [0 0 0 0] ------- [9:0 1:0 32 0] [2 0] 0 0
r 1.044468921 _9_ RTR  --- 3 tcp 1040 [0 0 0 0] ------- [9:0 1:0 32 0] [2 0] 0 0
s 1.044468921 _9_ RTR  --- 2 tcp 1040 [0 0 0 0] ------- [9:0 1:0 30 7] [1 0] 0 0
s 1.044468921 _9_ RTR  --- 3 tcp 1040 [0 0 0 0] ------- [9:0 1:0 30 7] [2 0] 0 0
r 1.054614501 _7_ RTR  --- 2 tcp 1040 [13a 7 9 800] ------- [9:0 1:0 30 7] [1 0] 1 0
f 1.054614501 _7_ RTR  --- 2 tcp 1040 [13a 7 9 800] ------- [9:0 1:0 29 8] [1 0] 1 0
r 1.064560698 _8_ RTR  --- 2 tcp 1040 [13a 8 7 800] ------- [9:0 1:0 29 8] [1 0] 2 0
f 1.064560698 _8_ RTR  --- 2 tcp 1040 [13a 8 7 800] ------- [9:0 1:0 28 1] [1 0] 2 0
s 1.069432572 _8_ RTR  --- 0 AODV 44 [0 0 0 0] ------- [8:255 -1:255 1 0] [0x1 1 [8 12] 4.000000] (HELLO)
r 1.074567198 _1_ AGT  --- 2 tcp 1040 [13a 1 8 800] ------- [9:0 1:0 28 1] [1 0] 3 0
s 1.074567198 _1_ AGT  --- 4 ack 40 [0 0 0 0] ------- [1:0 9:0 32 0] [1 0] 0 0
r 1.074567198 _1_ RTR  --- 4 ack 40 [0 0 0 0] ------- [1:0 9:0 32 0] [1 0] 0 0
s 1.074567198 _1_ RTR  --- 4 ack 40 [0 0 0 0] ------- [1:0 9:0 30 8] [1 0] 0 0
r 1.076413698 _8_ RTR  --- 4 ack 40 [13a 8 1 800] ------- [1:0 9:0 30 8] [1 0] 1 0
f 1.076413698 _8_ RTR  --- 4 ack 40 [13a 8 1 800] ------- [1:0 9:0 29 7] [1 0] 1 0
r 1.077853993 _0_ RTR  --- 0 AODV 44 [0 ffffffff 8 800] ------- [8:255 -1:255 1 0] [0x1 1 [8 12] 4.000000] (HELLO)
r 1.077854329 _4_ RTR  --- 0 AODV 44 [0 ffffffff 8 800] ------- [8:255 -1:255 1 0] [0x1 1 [8 12] 4.000000] (HELLO)
r 1.077854401 _3_ RTR  --- 0 AODV 44 [0 ffffffff 8 800] ------- [8:255 -1:255 1 0] [0x1 1 [8 12] 4.000000] (HELLO)
r 1.077854430 _7_ RTR  --- 0 AODV 44 [0 ffffffff 8 800] ------- [8:255 -1:255 1 0] [0x1 1 [8 12] 4.000000] (HELLO)
r 1.077854531 _1_ RTR  --- 0 AODV 44 [0 ffffffff 8 800] ------- [8:255 -1:255 1 0] [0x1 1 [8 12] 4.000000] (HELLO)
r 1.079365895 _7_ RTR  --- 4 ack 40 [13a 7 8 800] ------- [1:0 9:0 29 7] [1 0] 2 0
f 1.079365895 _7_ RTR  --- 4 ack 40 [13a 7 8 800] ------- [1:0 9:0 28 9] [1 0] 2 0
r 1.081251475 _9_ AGT  --- 4 ack 40 [13a 9 7 800] ------- [1:0 9:0 28 9] [1 0] 3 0
s 1.081251475 _9_ AGT  --- 5 tcp 1040 [0 0 0 0] ------- [9:0 1:0 32 0] [3 0] 0 0
r 1.081251475 _9_ RTR  --- 5 tcp 1040 [0 0 0 0] ------- [9:0 1:0 32 0] [3 0] 0 0
s 1.081251475 _9_ AGT  --- 6 tcp 1040 [0 0 0 0] ------- [9:0 1:0 32 0] [4 0] 0 0
r 1.081251475 _9_ RTR  --- 6 tcp 1040 [0 0 0 0] ------- [9:0 1:0 32 0] [4 0] 0 0
s 1.081251475 _9_ RTR  --- 5 tcp 1040 [0 0 0 0] ------- [9:0 1:0 30 7] [3 0] 0 0
s 1.081251475 _9_ RTR  --- 6 tcp 1040 [0 0 0 0] ------- [9:0 1:0 30 7] [4 0] 0 0
r 1.091477055 _7_ RTR  --- 3 tcp 1040 [13a 7 9 800] ------- [9:0 1:0 30 7] [2 0] 1 0
f 1.091477055 _7_ RTR  --- 3 tcp 1040 [13a 7 9 800] ------- [9:0 1:0 29 8] [2 0] 1 0
r 1.101523252 _8_ RTR  --- 3 tcp 1040 [13a 8 7 800] ------- [9:0 1:0 29 8] [2 0] 2 0
f 1.101523252 _8_ RTR  --- 3 tcp 1040 [13a 8 7 800] ------- [9:0 1:0 28 1] [2 0] 2 0
r 1.111649752 _1_ AGT  --- 3 tcp 1040 [13a 1 8 800] ------- [9:0 1:0 28 1] [2 0] 3 0
s 1.111649752 _1_ AGT  --- 7 ack 40 [0 0 0 0] ------- [1:0 9:0 32 0] [2 0] 0 0
r 1.111649752 _1_ RTR  --- 7 ack 40 [0 0 0 0] ------- [1:0 9:0 32 0] [2 0] 0 0
s 1.111649752 _1_ RTR  --- 7 ack 40 [0 0 0 0] ------- [1:0 9:0 30 8] [2 0] 0 0
r 1.113496252 _8_ RTR  --- 7 ack 40 [13a 8 1 800] ------- [1:0 9:0 30 8] [2 0] 1 0
f 1.113496252 _8_ RTR  --- 7 ack 40 [13a 8 1 800] ------- [1:0 9:0 29 7] [2 0] 1 0
r 1.115382448 _7_ RTR  --- 7 ack 40 [13a 7 8 800] ------- [1:0 9:0 29 7] [2 0] 2 0
f 1.115382448 _7_ RTR  --- 7 ack 40 [13a 7 8 800] ------- [1:0 9:0 28 9] [2 0] 2 0
r 1.117228029 _9_ AGT  --- 7 ack 40 [13a 9 7 800] ------- [1:0 9:0 28 9] [2 0] 3 0
s 1.117228029 _9_ AGT  --- 8 tcp 1040 [0 0 0 0] ------- [9:0 1:0 32 0] [5 0] 0 0
r 1.117228029 _9_ RTR  --- 8 tcp 1040 [0 0 0 0] ------- [9:0 1:0 32 0] [5 0] 0 0
s 1.117228029 _9_ AGT  --- 9 tcp 1040 [0 0 0 0] ------- [9:0 1:0 32 0] [6 0] 0 0
r 1.117228029 _9_ RTR  --- 9 tcp 1040 [0 0 0 0] ------- [9:0 1:0 32 0] [6 0] 0 0
s 1.117228029 _9_ RTR  --- 8 tcp 1040 [0 0 0 0] ------- [9:0 1:0 30 7] [5 0] 0 0
s 1.117228029 _9_ RTR  --- 9 tcp 1040 [0 0 0 0] ------- [9:0 1:0 30 7] [6 0] 0 0
r 1.127273609 _7_ RTR  --- 5 tcp 1040 [13a 7 9 800] ------- [9:0 1:0 30 7] [3 0] 1 0
f 1.127273609 _7_ RTR  --- 5 tcp 1040 [13a 7 9 800] ------- [9:0 1:0 29 8] [3 0] 1 0
r 1.137279806 _8_ RTR  --- 5 tcp 1040 [13a 8 7 800] ------- [9:0 1:0 29 8] [3 0] 2 0
f 1.137279806 _8_ RTR  --- 5 tcp 1040 [13a 8 7 800] ------- [9:0 1:0 28 1] [3 0] 2 0
r 1.147486306 _1_ AGT  --- 5 tcp 1040 [13a 1 8 800] ------- [9:0 1:0 28 1] [3 0] 3 0
s 1.147486306 _1_ AGT  --- 10 ack 40 [0 0 0 0] ------- [1:0 9:0 32 0] [3 0] 0 0
r 1.147486306 _1_ RTR  --- 10 ack 40 [0 0 0 0] ------- [1:0 9:0 32 0] [3 0] 0 0
s 1.147486306 _1_ RTR  --- 10 ack 40 [0 0 0 0] ------- [1:0 9:0 30 8] [3 0] 0 0
s 1.149577727 _4_ RTR  --- 0 AODV 44 [0 0 0 0] ------- [4:255 -1:255 1 0] [0x1 1 [4 12] 4.000000] (HELLO)
r 1.149632806 _8_ RTR  --- 10 ack 40 [13a 8 1 800] ------- [1:0 9:0 30 8] [3 0] 1 0
f 1.149632806 _8_ RTR  --- 10 ack 40 [13a 8 1 800] ------- [1:0 9:0 29 7] [3 0] 1 0
r 1.151599002 _7_ RTR  --- 10 ack 40 [13a 7 8 800] ------- [1:0 9:0 29 7] [3 0] 2 0
f 1.151599002 _7_ RTR  --- 10 ack 40 [13a 7 8 800] ------- [1:0 9:0 28 9] [3 0] 2 0
r 1.153464583 _9_ AGT  --- 10 ack 40 [13a 9 7 800] ------- [1:0 9:0 28 9] [3 0] 3 0
s 1.153464583 _9_ AGT  --- 11 tcp 1040 [0 0 0 0] ------- [9:0 1:0 32 0] [7 0] 0 0
r 1.153464583 _9_ RTR  --- 11 tcp 1040 [0 0 0 0] ------- [9:0 1:0 32 0] [7 0] 0 0
s 1.153464583 _9_ AGT  --- 12 tcp 1040 [0 0 0 0] ------- [9:0 1:0 32 0] [8 0] 0 0
r 1.153464583 _9_ RTR  --- 12 tcp 1040 [0 0 0 0] ------- [9:0 1:0 32 0] [8 0] 0 0
s 1.153464583 _9_ RTR  --- 11 tcp 1040 [0 0 0 0] ------- [9:0 1:0 30 7] [7 0] 0 0
s 1.153464583 _9_ RTR  --- 12 tcp 1040 [0 0 0 0] ------- [9:0 1:0 30 7] [8 0] 0 0
r 1.154725686 _7_ RTR  --- 0 AODV 44 [0 ffffffff 4 800] ------- [4:255 -1:255 1 0] [0x1 1 [4 12] 4.000000] (HELLO)
r 1.154725763 _9_ RTR  --- 0 AODV 44 [0 ffffffff 4 800] ------- [4:255 -1:255 1 0] [0x1 1 [4 12] 4.000000] (HELLO)
r 1.154725791 _0_ RTR  --- 0 AODV 44 [0 ffffffff 4 800] ------- [4:255 -1:255 1 0] [0x1 1 [4 12] 4.000000] (HELLO)
r 1.154725803 _8_ RTR  --- 0 AODV 44 [0 ffffffff 4 800] ------- [4:255 -1:255 1 0] [0x1 1 [4 12] 4.000000] (HELLO)
r 1.154725879 _5_ RTR  --- 0 AODV 44 [0 ffffffff 4 800] ------- [4:255 -1:255 1 0] [0x1 1 [4 12] 4.000000] (HELLO)
s 1.158238026 _6_ RTR  --- 0 AODV 44 [0 0 0 0] ------- [6:255 -1:255 1 0] [0x1 1 [6 10] 4.000000] (HELLO)
r 1.164437343 _7_ RTR  --- 6 tcp 1040 [13a 7 9 800] ------- [9:0 1:0 30 7] [4 0] 1 0
f 1.164437343 _7_ RTR  --- 6 tcp 1040 [13a 7 9 800] ------- [9:0 1:0 29 8] [4 0] 1 0
r 1.167325628 _2_ RTR  --- 0 AODV 44 [0 ffffffff 6 800] ------- [6:255 -1:255 1 0] [0x1 1 [6 10] 4.000000] (HELLO)
r 1.167325983 _0_ RTR  --- 0 AODV 44 [0 ffffffff 6 800] ------- [6:255 -1:255 1 0] [0x1 1 [6 10] 4.000000] (HELLO)
r 1.167326006 _3_ RTR  --- 0 AODV 44 [0 ffffffff 6 800] ------- [6:255 -1:255 1 0] [0x1 1 [6 10] 4.000000] (HELLO)
r 1.167326038 _1_ RTR  --- 0 AODV 44 [0 ffffffff 6 800] ------- [6:255 -1:255 1 0] [0x1 1 [6 10] 4.000000] (HELLO)
r 1.177322350 _7_ RTR  --- 8 tcp 1040 [13a 7 9 800] ------- [9:0 1:0 30 7] [5 0] 1 0
f 1.177322350 _7_ RTR  --- 8 tcp 1040 [13a 7 9 800] ------- [9:0 1:0 29 8] [5 0] 1 0
r 1.187388457 _7_ RTR  --- 9 tcp 1040 [13a 7 9 800] ------- [9:0 1:0 30 7] [6 0] 1 0
f 1.187388457 _7_ RTR  --- 9 tcp 1040 [13a 7 9 800] ------- [9:0 1:0 29 8] [6 0] 1 0
r 1.197434654 _8_ RTR  --- 6 tcp 1040 [13a 8 7 800] ------- [9:0 1:0 29 8] [4 0] 2 0
f 1.197434654 _8_ RTR  --- 6 tcp 1040 [13a 8 7 800] ------- [9:0 1:0 28 1] [4 0] 2 0
r 1.207361154 _1_ AGT  --- 6 tcp 1040 [13a 1 8 800] ------- [9:0 1:0 28 1] [4 0] 3 0
s 1.207361154 _1_ AGT  --- 13 ack 40 [0 0 0 0] ------- [1:0 9:0 32 0] [4 0] 0 0
r 1.207361154 _1_ RTR  --- 13 ack 40 [0 0 0 0] ------- [1:0 9:0 32 0] [4 0] 0 0
s 1.207361154 _1_ RTR  --- 13 ack 40 [0 0 0 0] ------- [1:0 9:0 30 8] [4 0] 0 0
r 1.209187654 _8_ RTR  --- 13 ack 40 [13a 8 1 800] ------- [1:0 9:0 30 8] [4 0] 1 0
f 1.209187654 _8_ RTR  --- 13 ack 40 [13a 8 1 800] ------- [1:0 9:0 29 7] [4 0] 1 0
r 1.219164550 _8_ RTR  --- 8 tcp 1040 [13a 8 7 800] ------- [9:0 1:0 29 8] [5 0] 2 0
f 1.219164550 _8_ RTR  --- 8 tcp 1040 [13a 8 7 800] ------- [9:0 1:0 28 1] [5 0] 2 0
r 1.230077479 _8_ RTR  --- 9 tcp 1040 [13a 8 7 800] ------- [9:0 1:0 29 8] [6 0] 2 0
f 1.230077479 _8_ RTR  --- 9 tcp 1040 [13a 8 7 800] ------- [9:0 1:0 28 1] [6 0] 2 0
r 1.232183675 _7_ RTR  --- 13 ack 40 [13a 7 8 800] ------- [1:0 9:0 29 7] [4 0] 2 0
f 1.232183675 _7_ RTR  --- 13 ack 40 [13a 7 8 800] ------- [1:0 9:0 28 9] [4 0] 2 0
r 1.234109256 _9_ AGT  --- 13 ack 40 [13a 9 7 800] ------- [1:0 9:0 28 9] [4 0] 3 0
s 1.234109256 _9_ AGT  --- 14 tcp 1040 [0 0 0 0] ------- [9:0 1:0 32 0] [9 0] 0 0
r 1.234109256 _9_ RTR  --- 14 tcp 1040 [0 0 0 0] ------- [9:0 1:0 32 0] [9 0] 0 0
s 1.234109256 _9_ AGT  --- 15 tcp 1040 [0 0 0 0] ------- [9:0 1:0 32 0] [10 0] 0 0
r 1.234109256 _9_ RTR  --- 15 tcp 1040 [0 0 0 0] ------- [9:0 1:0 32 0] [10 0] 0 0
s 1.234109256 _9_ RTR  --- 14 tcp 1040 [0 0 0 0] ------- [9:0 1:0 30 7] [9 0] 0 0
s 1.234109256 _9_ RTR  --- 15 tcp 1040 [0 0 0 0] ------- [9:0 1:0 30 7] [10 0] 0 0
r 1.244154836 _7_ RTR  --- 11 tcp 1040 [13a 7 9 800] ------- [9:0 1:0 30 7] [7 0] 1 0
f 1.244154836 _7_ RTR  --- 11 tcp 1040 [13a 7 9 800] ------- [9:0 1:0 29 8] [7 0] 1 0
r 1.254111938 _1_ AGT  --- 8 tcp 1040 [13a 1 8 800] ------- [9:0 1:0 28 1] [5 0] 3 0
s 1.254111938 _1_ AGT  --- 16 ack 40 [0 0 0 0] ------- [1:0 9:0 32 0] [5 0] 0 0
r 1.254111938 _1_ RTR  --- 16 ack 40 [0 0 0 0] ------- [1:0 9:0 32 0] [5 0] 0 0
s 1.254111938 _1_ RTR  --- 16 ack 40 [0 0 0 0] ------- [1:0 9:0 30 8] [5 0] 0 0
r 1.256078438 _8_ RTR  --- 16 ack 40 [13a 8 1 800] ------- [1:0 9:0 30 8] [5 0] 1 0
f 1.256078438 _8_ RTR  --- 16 ack 40 [13a 8 1 800] ------- [1:0 9:0 29 7] [5 0] 1 0
r 1.266135335 _8_ RTR  --- 11 tcp 1040 [13a 8 7 800] ------- [9:0 1:0 29 8] [7 0] 2 0
f 1.266135335 _8_ RTR  --- 11 tcp 1040 [13a 8 7 800] ------- [9:0 1:0 28 1] [7 0] 2 0
r 1.276161835 _1_ AGT  --- 9 tcp 1040 [13a 1 8 800] ------- [9:0 1:0 28 1] [6 0] 3 0
s 1.276161835 _1_ AGT  --- 17 ack 40 [0 0 0 0] ------- [1:0 9:0 32 0] [6 0] 0 0
r 1.276161835 _1_ RTR  --- 17 ack 40 [0 0 0 0] ------- [1:0 9:0 32 0] [6 0] 0 0
s 1.276161835 _1_ RTR  --- 17 ack 40 [0 0 0 0] ------- [1:0 9:0 30 8] [6 0] 0 0
r 1.278168335 _8_ RTR  --- 17 ack 40 [13a 8 1 800] ------- [1:0 9:0 30 8] [6 0] 1 0
f 1.278168335 _8_ RTR  --- 17 ack 40 [13a 8 1 800] ------- [1:0 9:0 29 7] [6 0] 1 0
r 1.280314531 _7_ RTR  --- 16 ack 40 [13a 7 8 800] ------- [1:0 9:0 29 7] [5 0] 2 0
f 1.280314531 _7_ RTR  --- 16 ack 40 [13a 7 8 800] ------- [1:0 9:0 28 9] [5 0] 2 0
r 1.282140111 _9_ AGT  --- 16 ack 40 [13a 9 7 800] ------- [1:0 9:0 28 9] [5 0] 3 0
s 1.282140111 _9_ AGT  --- 18 tcp 1040 [0 0 0 0] ------- [9:0 1:0 32 0] [11 0] 0 0
r 1.282140111 _9_ RTR  --- 18 tcp 1040 [0 0 0 0] ------- [9:0 1:0 32 0] [11 0] 0 0
s 1.282140111 _9_ AGT  --- 19 tcp 1040 [0 0 0 0] ------- [9:0 1:0 32 0] [12 0] 0 0
r 1.282140111 _9_ RTR  --- 19 tcp 1040 [0 0 0 0] ------- [9:0 1:0 32 0] [12 0] 0 0
s 1.282140111 _9_ RTR  --- 18 tcp 1040 [0 0 0 0] ------- [9:0 1:0 30 7] [11 0] 0 0
s 1.282140111 _9_ RTR  --- 19 tcp 1040 [0 0 0 0] ------- [9:0 1:0 30 7] [12 0] 0 0
r 1.292411741 _1_ AGT  --- 11 tcp 1040 [13a 1 8 800] ------- [9:0 1:0 28 1] [7 0] 3 0
s 1.292411741 _1_ AGT  --- 20 ack 40 [0 0 0 0] ------- [1:0 9:0 32 0] [7 0] 0 0
r 1.292411741 _1_ RTR  --- 20 ack 40 [0 0 0 0] ------- [1:0 9:0 32 0] [7 0] 0 0
s 1.292411741 _1_ RTR  --- 20 ack 40 [0 0 0 0] ------- [1:0 9:0 30 8] [7 0] 0 0
r 1.294538241 _8_ RTR  --- 20 ack 40 [13a 8 1 800] ------- [1:0 9:0 30 8] [7 0] 1 0
f 1.294538241 _8_ RTR  --- 20 ack 40 [13a 8 1 800] ------- [1:0 9:0 29 7] [7 0] 1 0
r 1.296424437 _7_ RTR  --- 17 ack 40 [13a 7 8 800] ------- [1:0 9:0 29 7] [6 0] 2 0
f 1.296424437 _7_ RTR  --- 17 ack 40 [13a 7 8 800] ------- [1:0 9:0 28 9] [6 0] 2 0
r 1.306340415 _7_ RTR  --- 12 tcp 1040 [13a 7 9 800] ------- [9:0 1:0 30 7] [8 0] 1 0
f 1.306340415 _7_ RTR  --- 12 tcp 1040 [13a 7 9 800] ------- [9:0 1:0 29 8] [8 0] 1 0
r 1.309374267 _7_ RTR  --- 20 ack 40 [13a 7 8 800] ------- [1:0 9:0 29 7] [7 0] 2 0
f 1.309374267 _7_ RTR  --- 20 ack 40 [13a 7 8 800] ------- [1:0 9:0 28 9] [7 0] 2 0
r 1.311239848 _9_ AGT  --- 17 ack 40 [13a 9 7 800] ------- [1:0 9:0 28 9] [6 0] 3 0
s 1.311239848 _9_ AGT  --- 21 tcp 1040 [0 0 0 0] ------- [9:0 1:0 32 0] [13 0] 0 0
r 1.311239848 _9_ RTR  --- 21 tcp 1040 [0 0 0 0] ------- [9:0 1:0 32 0] [13 0] 0 0
s 1.311239848 _9_ AGT  --- 22 tcp 1040 [0 0 0 0] ------- [9:0 1:0 32 0] [14 0] 0 0
r 1.311239848 _9_ RTR  --- 22 tcp 1040 [0 0 0 0] ------- [9:0 1:0 32 0] [14 0] 0 0
s 1.311239848 _9_ RTR  --- 21 tcp 1040 [0 0 0 0] ------- [9:0 1:0 30 7] [13 0] 0 0
s 1.311239848 _9_ RTR  --- 22 tcp 1040 [0 0 0 0] ------- [9:0 1:0 30 7] [14 0] 0 0
r 1.321265428 _7_ RTR  --- 14 tcp 1040 [13a 7 9 800] ------- [9:0 1:0 30 7] [9 0] 1 0
f 1.321265428 _7_ RTR  --- 14 tcp 1040 [13a 7 9 800] ------- [9:0 1:0 29 8] [9 0] 1 0
r 1.331091535 _7_ RTR  --- 15 tcp 1040 [13a 7 9 800] ------- [9:0 1:0 30 7] [10 0] 1 0
f 1.331091535 _7_ RTR  --- 15 tcp 1040 [13a 7 9 800] ------- [9:0 1:0 29 8] [10 0] 1 0
r 1.341337732 _8_ RTR  --- 12 tcp 1040 [13a 8 7 800] ------- [9:0 1:0 29 8] [8 0] 2 0
f 1.341337732 _8_ RTR  --- 12 tcp 1040 [13a 8 7 800] ------- [9:0 1:0 28 1] [8 0] 2 0
r 1.351484232 _1_ AGT  --- 12 tcp 1040 [13a 1 8 800] ------- [9:0 1:0 28 1] [8 0] 3 0
s 1.351484232 _1_ AGT  --- 23 ack 40 [0 0 0 0] ------- [1:0 9:0 32 0] [8 0] 0 0