s 0.000000000 _0_ RTR  --- 0 AODV 44 [0 0 0 0] ------- [0:255 -1:255 1 0] [0x1 1 [0 2] 4.000000] (HELLO)
s 0.000000000 _1_ RTR  --- 0 AODV 44 [0 0 0 0] ------- [1:255 -1:255 1 0] [0x1 1 [1 2] 4.000000] (HELLO)
s 0.000000000 _2_ RTR  --- 0 AODV 44 [0 0 0 0] ------- [2:255 -1:255 1 0] [0x1 1 [2 2] 4.000000] (HELLO)
s 0.000000000 _3_ RTR  --- 0 AODV 44 [0 0 0 0] ------- [3:255 -1:255 1 0] [0x1 1 [3 2] 4.000000] (HELLO)
s 0.000000000 _4_ RTR  --- 0 AODV 44 [0 0 0 0] ------- [4:255 -1:255 1 0] [0x1 1 [4 2] 4.000000] (HELLO)
s 0.000000000 _5_ RTR  --- 0 AODV 44 [0 0 0 0] ------- [5:255 -1:255 1 0] [0x1 1 [5 2] 4.000000] (HELLO)
s 0.000000000 _6_ RTR  --- 0 AODV 44 [0 0 0 0] ------- [6:255 -1:255 1 0] [0x1 1 [6 2] 4.000000] (HELLO)
s 0.000000000 _7_ RTR  --- 0 AODV 44 [0 0 0 0] ------- [7:255 -1:255 1 0] [0x1 1 [7 2] 4.000000] (HELLO)
s 0.000000000 _8_ RTR  --- 0 AODV 44 [0 0 0 0] ------- [8:255 -1:255 1 0] [0x1 1 [8 2] 4.000000] (HELLO)
s 0.000000000 _9_ RTR  --- 0 AODV 44 [0 0 0 0] ------- [9:255 -1:255 1 0] [0x1 1 [9 2] 4.000000] (HELLO)
s 0.000000000 _10_ RTR  --- 0 AODV 44 [0 0 0 0] ------- [10:255 -1:255 1 0] [0x1 1 [10 2] 4.000000] (HELLO)
s 0.000000000 _11_ RTR  --- 0 AODV 44 [0 0 0 0] ------- [11:255 -1:255 1 0] [0x1 1 [11 2] 4.000000] (HELLO)
s 0.000000000 _12_ RTR  --- 0 AODV 44 [0 0 0 0] ------- [12:255 -1:255 1 0] [0x1 1 [12 2] 4.000000] (HELLO)
s 0.000000000 _13_ RTR  --- 0 AODV 44 [0 0 0 0] ------- [13:255 -1:255 1 0] [0x1 1 [13 2] 4.000000] (HELLO)
s 0.000000000 _14_ RTR  --- 0 AODV 44 [0 0 0 0] ------- [14:255 -1:255 1 0] [0x1 1 [14 2] 4.000000] (HELLO)
s 0.000000000 _15_ RTR  --- 0 AODV 44 [0 0 0 0] ------- [15:255 -1:255 1 0] [0x1 1 [15 2] 4.000000] (HELLO)
s 0.000000000 _16_ RTR  --- 0 AODV 44 [0 0 0 0] ------- [16:255 -1:255 1 0] [0x1 1 [16 2] 4.000000] (HELLO)
s 0.000000000 _17_ RTR  --- 0 AODV 44 [0 0 0 0] ------- [17:255 -1:255 1 0] [0x1 1 [17 2] 4.000000] (HELLO)
s 0.000000000 _18_ RTR  --- 0 AODV 44 [0 0 0 0] ------- [18:255 -1:255 1 0] [0x1 1 [18 2] 4.000000] (HELLO)
s 0.000000000 _19_ RTR  --- 0 AODV 44 [0 0 0 0] ------- [19:255 -1:255 1 0] [0x1 1 [19 2] 4.000000] (HELLO)
s 0.000000000 _20_ RTR  --- 0 AODV 44 [0 0 0 0] ------- [20:255 -1:255 1 0] [0x1 1 [20 2] 4.000000] (HELLO)
s 0.000000000 _21_ RTR  --- 0 AODV 44 [0 0 0 0] ------- [21:255 -1:255 1 0] [0x1 1 [21 2] 4.000000] (HELLO)
s 0.000000000 _22_ RTR  --- 0 AODV 44 [0 0 0 0] ------- [22:255 -1:255 1 0] [0x1 1 [22 2] 4.000000] (HELLO)
s 0.000000000 _23_ RTR  --- 0 AODV 44 [0 0 0 0] ------- [23:255 -1:255 1 0] [0x1 1 [23 2] 4.000000] (HELLO)
s 0.000000000 _24_ RTR  --- 0 AODV 44 [0 0 0 0] ------- [24:255 -1:255 1 0] [0x1 1 [24 2] 4.000000] (HELLO)
s 0.000000000 _25_ RTR  --- 0 AODV 44 [0 0 0 0] ------- [25:255 -1:255 1 0] [0x1 1 [25 2] 4.000000] (HELLO)
s 0.000000000 _26_ RTR  --- 0 AODV 44 [0 0 0 0] ------- [26:255 -1:255 1 0] [0x1 1 [26 2] 4.000000] (HELLO)
s 0.000000000 _27_ RTR  --- 0 AODV 44 [0 0 0 0] ------- [27:255 -1:255 1 0] [0x1 1 [27 2] 4.000000] (HELLO)
s 0.000000000 _28_ RTR  --- 0 AODV 44 [0 0 0 0] ------- [28:255 -1:255 1 0] [0x1 1 [28 2] 4.000000] (HELLO)
s 0.000000000 _29_ RTR  --- 0 AODV 44 [0 0 0 0] ------- [29:255 -1:255 1 0] [0x1 1 [29 2] 4.000000] (HELLO)
r 0.000916150 _28_ RTR  --- 0 AODV 44 [0 ffffffff 14 800] ------- [20:255 -1:255 1 0] [0x1 1 [20 2] 4.000000] (HELLO)
r 0.000916334 _6_ RTR  --- 0 AODV 44 [0 ffffffff 1b 800] ------- [27:255 -1:255 1 0] [0x1 1 [27 2] 4.000000] (HELLO)
r 0.000976197 _13_ RTR  --- 0 AODV 44 [0 ffffffff c 800] ------- [12:255 -1:255 1 0] [0x1 1 [12 2] 4.000000] (HELLO)
r 0.000976233 _29_ RTR  --- 0 AODV 44 [0 ffffffff c 800] ------- [12:255 -1:255 1 0] [0x1 1 [12 2] 4.000000] (HELLO)
r 0.000976722 _16_ RTR  --- 0 AODV 44 [0 ffffffff c 800] ------- [12:255 -1:255 1 0] [0x1 1 [12 2] 4.000000] (HELLO)
r 0.001902394 _12_ RTR  --- 0 AODV 44 [0 ffffffff d 800] ------- [13:255 -1:255 1 0] [0x1 1 [13 2] 4.000000] (HELLO)
r 0.001902602 _29_ RTR  --- 0 AODV 44 [0 ffffffff d 800] ------- [13:255 -1:255 1 0] [0x1 1 [13 2] 4.000000] (HELLO)
r 0.001902814 _16_ RTR  --- 0 AODV 44 [0 ffffffff d 800] ------- [13:255 -1:255 1 0] [0x1 1 [13 2] 4.000000] (HELLO)
r 0.001902949 _7_ RTR  --- 0 AODV 44 [0 ffffffff d 800] ------- [13:255 -1:255 1 0] [0x1 1 [13 2] 4.000000] (HELLO)
r 0.002227086 _14_ RTR  --- 0 AODV 44 [0 ffffffff 4 800] ------- [4:255 -1:255 1 0] [0x1 1 [4 2] 4.000000] (HELLO)
r 0.002227171 _6_ RTR  --- 0 AODV 44 [0 ffffffff 4 800] ------- [4:255 -1:255 1 0] [0x1 1 [4 2] 4.000000] (HELLO)
r 0.002307717 _11_ RTR  --- 0 AODV 44 [0 ffffffff 17 800] ------- [23:255 -1:255 1 0] [0x1 1 [23 2] 4.000000] (HELLO)
r 0.002308058 _26_ RTR  --- 0 AODV 44 [0 ffffffff 17 800] ------- [23:255 -1:255 1 0] [0x1 1 [23 2] 4.000000] (HELLO)
r 0.002809701 _13_ RTR  --- 0 AODV 44 [0 ffffffff 7 800] ------- [7:255 -1:255 1 0] [0x1 1 [7 2] 4.000000] (HELLO)
r 0.003314399 _11_ RTR  --- 0 AODV 44 [0 ffffffff 1a 800] ------- [26:255 -1:255 1 0] [0x1 1 [26 2] 4.000000] (HELLO)
r 0.003314430 _24_ RTR  --- 0 AODV 44 [0 ffffffff 1a 800] ------- [26:255 -1:255 1 0] [0x1 1 [26 2] 4.000000] (HELLO)
r 0.003314509 _23_ RTR  --- 0 AODV 44 [0 ffffffff 1a 800] ------- [26:255 -1:255 1 0] [0x1 1 [26 2] 4.000000] (HELLO)
r 0.003314813 _5_ RTR  --- 0 AODV 44 [0 ffffffff 1a 800] ------- [26:255 -1:255 1 0] [0x1 1 [26 2] 4.000000] (HELLO)
r 0.003517808 _8_ RTR  --- 0 AODV 44 [0 ffffffff 3 800] ------- [3:255 -1:255 1 0] [0x1 1 [3 2] 4.000000] (HELLO)
r 0.003517957 _9_ RTR  --- 0 AODV 44 [0 ffffffff 3 800] ------- [3:255 -1:255 1 0] [0x1 1 [3 2] 4.000000] (HELLO)
r 0.003518090 _25_ RTR  --- 0 AODV 44 [0 ffffffff 3 800] ------- [3:255 -1:255 1 0] [0x1 1 [3 2] 4.000000] (HELLO)
r 0.003518199 _22_ RTR  --- 0 AODV 44 [0 ffffffff 3 800] ------- [3:255 -1:255 1 0] [0x1 1 [3 2] 4.000000] (HELLO)
r 0.003518309 _18_ RTR  --- 0 AODV 44 [0 ffffffff 3 800] ------- [3:255 -1:255 1 0] [0x1 1 [3 2] 4.000000] (HELLO)
r 0.003518495 _4_ RTR  --- 0 AODV 44 [0 ffffffff 3 800] ------- [3:255 -1:255 1 0] [0x1 1 [3 2] 4.000000] (HELLO)
r 0.004160367 _2_ RTR  --- 0 AODV 44 [0 ffffffff 10 800] ------- [16:255 -1:255 1 0] [0x1 1 [16 2] 4.000000] (HELLO)
r 0.004160589 _13_ RTR  --- 0 AODV 44 [0 ffffffff 10 800] ------- [16:255 -1:255 1 0] [0x1 1 [16 2] 4.000000] (HELLO)
r 0.004160694 _12_ RTR  --- 0 AODV 44 [0 ffffffff 10 800] ------- [16:255 -1:255 1 0] [0x1 1 [16 2] 4.000000] (HELLO)
r 0.004160731 _29_ RTR  --- 0 AODV 44 [0 ffffffff 10 800] ------- [16:255 -1:255 1 0] [0x1 1 [16 2] 4.000000] (HELLO)
r 0.004320801 _26_ RTR  --- 0 AODV 44 [0 ffffffff 18 800] ------- [24:255 -1:255 1 0] [0x1 1 [24 2] 4.000000] (HELLO)
r 0.004321024 _5_ RTR  --- 0 AODV 44 [0 ffffffff 18 800] ------- [24:255 -1:255 1 0] [0x1 1 [24 2] 4.000000] (HELLO)
r 0.004321096 _11_ RTR  --- 0 AODV 44 [0 ffffffff 18 800] ------- [24:255 -1:255 1 0] [0x1 1 [24 2] 4.000000] (HELLO)
r 0.004321197 _23_ RTR  --- 0 AODV 44 [0 ffffffff 18 800] ------- [24:255 -1:255 1 0] [0x1 1 [24 2] 4.000000] (HELLO)
r 0.004464209 _3_ RTR  --- 0 AODV 44 [0 ffffffff 9 800] ------- [9:255 -1:255 1 0] [0x1 1 [9 2] 4.000000] (HELLO)
r 0.004464212 _8_ RTR  --- 0 AODV 44 [0 ffffffff 9 800] ------- [9:255 -1:255 1 0] [0x1 1 [9 2] 4.000000] (HELLO)
r 0.004464256 _25_ RTR  --- 0 AODV 44 [0 ffffffff 9 800] ------- [9:255 -1:255 1 0] [0x1 1 [9 2] 4.000000] (HELLO)
r 0.004464446 _18_ RTR  --- 0 AODV 44 [0 ffffffff 9 800] ------- [9:255 -1:255 1 0] [0x1 1 [9 2] 4.000000] (HELLO)
r 0.004464512 _4_ RTR  --- 0 AODV 44 [0 ffffffff 9 800] ------- [9:255 -1:255 1 0] [0x1 1 [9 2] 4.000000] (HELLO)
r 0.004464680 _22_ RTR  --- 0 AODV 44 [0 ffffffff 9 800] ------- [9:255 -1:255 1 0] [0x1 1 [9 2] 4.000000] (HELLO)
r 0.005046963 _12_ RTR  --- 0 AODV 44 [0 ffffffff 1d 800] ------- [29:255 -1:255 1 0] [0x1 1 [29 2] 4.000000] (HELLO)
r 0.005047135 _13_ RTR  --- 0 AODV 44 [0 ffffffff 1d 800] ------- [29:255 -1:255 1 0] [0x1 1 [29 2] 4.000000] (HELLO)
r 0.005047489 _16_ RTR  --- 0 AODV 44 [0 ffffffff 1d 800] ------- [29:255 -1:255 1 0] [0x1 1 [29 2] 4.000000] (HELLO)
r 0.005327206 _23_ RTR  --- 0 AODV 44 [0 ffffffff b 800] ------- [11:255 -1:255 1 0] [0x1 1 [11 2] 4.000000] (HELLO)
r 0.005327438 _26_ RTR  --- 0 AODV 44 [0 ffffffff b 800] ------- [11:255 -1:255 1 0] [0x1 1 [11 2] 4.000000] (HELLO)
r 0.005327763 _24_ RTR  --- 0 AODV 44 [0 ffffffff b 800] ------- [11:255 -1:255 1 0] [0x1 1 [11 2] 4.000000] (HELLO)
r 0.005327912 _5_ RTR  --- 0 AODV 44 [0 ffffffff b 800] ------- [11:255 -1:255 1 0] [0x1 1 [11 2] 4.000000] (HELLO)
r 0.005431149 _8_ RTR  --- 0 AODV 44 [0 ffffffff 16 800] ------- [22:255 -1:255 1 0] [0x1 1 [22 2] 4.000000] (HELLO)
r 0.005431174 _3_ RTR  --- 0 AODV 44 [0 ffffffff 16 800] ------- [22:255 -1:255 1 0] [0x1 1 [22 2] 4.000000] (HELLO)
r 0.005431351 _25_ RTR  --- 0 AODV 44 [0 ffffffff 16 800] ------- [22:255 -1:255 1 0] [0x1 1 [22 2] 4.000000] (HELLO)
r 0.005431403 _9_ RTR  --- 0 AODV 44 [0 ffffffff 16 800] ------- [22:255 -1:255 1 0] [0x1 1 [22 2] 4.000000] (HELLO)
r 0.006254506 _24_ RTR  --- 0 AODV 44 [0 ffffffff 5 800] ------- [5:255 -1:255 1 0] [0x1 1 [5 2] 4.000000] (HELLO)
r 0.006254665 _10_ RTR  --- 0 AODV 44 [0 ffffffff 5 800] ------- [5:255 -1:255 1 0] [0x1 1 [5 2] 4.000000] (HELLO)
r 0.006254666 _26_ RTR  --- 0 AODV 44 [0 ffffffff 5 800] ------- [5:255 -1:255 1 0] [0x1 1 [5 2] 4.000000] (HELLO)
r 0.006254727 _11_ RTR  --- 0 AODV 44 [0 ffffffff 5 800] ------- [5:255 -1:255 1 0] [0x1 1 [5 2] 4.000000] (HELLO)
r 0.006438117 _16_ RTR  --- 0 AODV 44 [0 ffffffff 2 800] ------- [2:255 -1:255 1 0] [0x1 1 [2 2] 4.000000] (HELLO)
r 0.006438404 _17_ RTR  --- 0 AODV 44 [0 ffffffff 2 800] ------- [2:255 -1:255 1 0] [0x1 1 [2 2] 4.000000] (HELLO)
r 0.006497252 _3_ RTR  --- 0 AODV 44 [0 ffffffff 8 800] ------- [8:255 -1:255 1 0] [0x1 1 [8 2] 4.000000] (HELLO)
r 0.006497447 _25_ RTR  --- 0 AODV 44 [0 ffffffff 8 800] ------- [8:255 -1:255 1 0] [0x1 1 [8 2] 4.000000] (HELLO)
r 0.006497619 _22_ RTR  --- 0 AODV 44 [0 ffffffff 8 800] ------- [8:255 -1:255 1 0] [0x1 1 [8 2] 4.000000] (HELLO)
r 0.007160925 _15_ RTR  --- 0 AODV 44 [0 ffffffff a 800] ------- [10:255 -1:255 1 0] [0x1 1 [10 2] 4.000000] (HELLO)
r 0.007161387 _19_ RTR  --- 0 AODV 44 [0 ffffffff a 800] ------- [10:255 -1:255 1 0] [0x1 1 [10 2] 4.000000] (HELLO)
r 0.007161419 _5_ RTR  --- 0 AODV 44 [0 ffffffff a 800] ------- [10:255 -1:255 1 0] [0x1 1 [10 2] 4.000000] (HELLO)
r 0.007909227 _2_ RTR  --- 0 AODV 44 [0 ffffffff 11 800] ------- [17:255 -1:255 1 0] [0x1 1 [17 2] 4.000000] (HELLO)
r 0.007988735 _20_ RTR  --- 0 AODV 44 [0 ffffffff e 800] ------- [14:255 -1:255 1 0] [0x1 1 [14 2] 4.000000] (HELLO)
r 0.007988847 _28_ RTR  --- 0 AODV 44 [0 ffffffff e 800] ------- [14:255 -1:255 1 0] [0x1 1 [14 2] 4.000000] (HELLO)
r 0.008327991 _15_ RTR  --- 0 AODV 44 [0 ffffffff 13 800] ------- [19:255 -1:255 1 0] [0x1 1 [19 2] 4.000000] (HELLO)
r 0.008328109 _10_ RTR  --- 0 AODV 44 [0 ffffffff 13 800] ------- [19:255 -1:255 1 0] [0x1 1 [19 2] 4.000000] (HELLO)
r 0.009014997 _20_ RTR  --- 0 AODV 44 [0 ffffffff 1c 800] ------- [28:255 -1:255 1 0] [0x1 1 [28 2] 4.000000] (HELLO)
r 0.009015516 _24_ RTR  --- 0 AODV 44 [0 ffffffff 1c 800] ------- [28:255 -1:255 1 0] [0x1 1 [28 2] 4.000000] (HELLO)
r 0.009015568 _14_ RTR  --- 0 AODV 44 [0 ffffffff 1c 800] ------- [28:255 -1:255 1 0] [0x1 1 [28 2] 4.000000] (HELLO)
r 0.009015630 _27_ RTR  --- 0 AODV 44 [0 ffffffff 1c 800] ------- [28:255 -1:255 1 0] [0x1 1 [28 2] 4.000000] (HELLO)
r 0.010286617 _21_ RTR  --- 0 AODV 44 [0 ffffffff 0 800] ------- [0:255 -1:255 1 0] [0x1 1 [0 2] 4.000000] (HELLO)
r 0.010286649 _1_ RTR  --- 0 AODV 44 [0 ffffffff 0 800] ------- [0:255 -1:255 1 0] [0x1 1 [0 2] 4.000000] (HELLO)
r 0.010287158 _15_ RTR  --- 0 AODV 44 [0 ffffffff 0 800] ------- [0:255 -1:255 1 0] [0x1 1 [0 2] 4.000000] (HELLO)
r 0.010287311 _10_ RTR  --- 0 AODV 44 [0 ffffffff 0 800] ------- [0:255 -1:255 1 0] [0x1 1 [0 2] 4.000000] (HELLO)
r 0.011313418 _10_ RTR  --- 0 AODV 44 [0 ffffffff f 800] ------- [15:255 -1:255 1 0] [0x1 1 [15 2] 4.000000] (HELLO)
r 0.011313762 _19_ RTR  --- 0 AODV 44 [0 ffffffff f 800] ------- [15:255 -1:255 1 0] [0x1 1 [15 2] 4.000000] (HELLO)
r 0.011313777 _1_ RTR  --- 0 AODV 44 [0 ffffffff f 800] ------- [15:255 -1:255 1 0] [0x1 1 [15 2] 4.000000] (HELLO)
r 0.011313782 _21_ RTR  --- 0 AODV 44 [0 ffffffff f 800] ------- [15:255 -1:255 1 0] [0x1 1 [15 2] 4.000000] (HELLO)
r 0.011313825 _0_ RTR  --- 0 AODV 44 [0 ffffffff f 800] ------- [15:255 -1:255 1 0] [0x1 1 [15 2] 4.000000] (HELLO)
r 0.012199908 _0_ RTR  --- 0 AODV 44 [0 ffffffff 15 800] ------- [21:255 -1:255 1 0] [0x1 1 [21 2] 4.000000] (HELLO)
r 0.012200039 _1_ RTR  --- 0 AODV 44 [0 ffffffff 15 800] ------- [21:255 -1:255 1 0] [0x1 1 [21 2] 4.000000] (HELLO)
r 0.012200405 _15_ RTR  --- 0 AODV 44 [0 ffffffff 15 800] ------- [21:255 -1:255 1 0] [0x1 1 [21 2] 4.000000] (HELLO)
r 0.012200524 _10_ RTR  --- 0 AODV 44 [0 ffffffff 15 800] ------- [21:255 -1:255 1 0] [0x1 1 [21 2] 4.000000] (HELLO)
r 0.013146197 _0_ RTR  --- 0 AODV 44 [0 ffffffff 1 800] ------- [1:255 -1:255 1 0] [0x1 1 [1 2] 4.000000] (HELLO)
r 0.013146297 _21_ RTR  --- 0 AODV 44 [0 ffffffff 1 800] ------- [1:255 -1:255 1 0] [0x1 1 [1 2] 4.000000] (HELLO)
r 0.013146658 _15_ RTR  --- 0 AODV 44 [0 ffffffff 1 800] ------- [1:255 -1:255 1 0] [0x1 1 [1 2] 4.000000] (HELLO)
r 0.013146852 _10_ RTR  --- 0 AODV 44 [0 ffffffff 1 800] ------- [1:255 -1:255 1 0] [0x1 1 [1 2] 4.000000] (HELLO)
r 0.014437644 _9_ RTR  --- 0 AODV 44 [0 ffffffff 12 800] ------- [18:255 -1:255 1 0] [0x1 1 [18 2] 4.000000] (HELLO)
r 0.014437759 _3_ RTR  --- 0 AODV 44 [0 ffffffff 12 800] ------- [18:255 -1:255 1 0] [0x1 1 [18 2] 4.000000] (HELLO)
r 0.014437831 _8_ RTR  --- 0 AODV 44 [0 ffffffff 12 800] ------- [18:255 -1:255 1 0] [0x1 1 [18 2] 4.000000] (HELLO)
r 0.014437843 _6_ RTR  --- 0 AODV 44 [0 ffffffff 12 800] ------- [18:255 -1:255 1 0] [0x1 1 [18 2] 4.000000] (HELLO)
r 0.014437938 _25_ RTR  --- 0 AODV 44 [0 ffffffff 12 800] ------- [18:255 -1:255 1 0] [0x1 1 [18 2] 4.000000] (HELLO)
r 0.014437960 _4_ RTR  --- 0 AODV 44 [0 ffffffff 12 800] ------- [18:255 -1:255 1 0] [0x1 1 [18 2] 4.000000] (HELLO)
r 0.015324168 _4_ RTR  --- 0 AODV 44 [0 ffffffff 6 800] ------- [6:255 -1:255 1 0] [0x1 1 [6 2] 4.000000] (HELLO)
r 0.015324177 _27_ RTR  --- 0 AODV 44 [0 ffffffff 6 800] ------- [6:255 -1:255 1 0] [0x1 1 [6 2] 4.000000] (HELLO)
r 0.015324249 _14_ RTR  --- 0 AODV 44 [0 ffffffff 6 800] ------- [6:255 -1:255 1 0] [0x1 1 [6 2] 4.000000] (HELLO)
r 0.015324506 _9_ RTR  --- 0 AODV 44 [0 ffffffff 6 800] ------- [6:255 -1:255 1 0] [0x1 1 [6 2] 4.000000] (HELLO)
r 0.015324529 _18_ RTR  --- 0 AODV 44 [0 ffffffff 6 800] ------- [6:255 -1:255 1 0] [0x1 1 [6 2] 4.000000] (HELLO)
r 0.015324597 _25_ RTR  --- 0 AODV 44 [0 ffffffff 6 800] ------- [6:255 -1:255 1 0] [0x1 1 [6 2] 4.000000] (HELLO)
s 0.757102330 _1_ RTR  --- 0 AODV 44 [0 0 0 0] ------- [1:255 -1:255 1 0] [0x1 1 [1 8] 4.000000] (HELLO)
r 0.758198488 _0_ RTR  --- 0 AODV 44 [0 ffffffff 1 800] ------- [1:255 -1:255 1 0] [0x1 1 [1 8] 4.000000] (HELLO)
r 0.758198588 _21_ RTR  --- 0 AODV 44 [0 ffffffff 1 800] ------- [1:255 -1:255 1 0] [0x1 1 [1 8] 4.000000] (HELLO)
r 0.758198949 _15_ RTR  --- 0 AODV 44 [0 ffffffff 1 800] ------- [1:255 -1:255 1 0] [0x1 1 [1 8] 4.000000] (HELLO)
r 0.758199143 _10_ RTR  --- 0 AODV 44 [0 ffffffff 1 800] ------- [1:255 -1:255 1 0] [0x1 1 [1 8] 4.000000] (HELLO)
s 0.771397279 _12_ RTR  --- 0 AODV 44 [0 0 0 0] ------- [12:255 -1:255 1 0] [0x1 1 [12 8] 4.000000] (HELLO)
r 0.772713476 _13_ RTR  --- 0 AODV 44 [0 ffffffff c 800] ------- [12:255 -1:255 1 0] [0x1 1 [12 8] 4.000000] (HELLO)
r 0.772713511 _29_ RTR  --- 0 AODV 44 [0 ffffffff c 800] ------- [12:255 -1:255 1 0] [0x1 1 [12 8] 4.000000] (HELLO)
r 0.772714001 _16_ RTR  --- 0 AODV 44 [0 ffffffff c 800] ------- [12:255 -1:255 1 0] [0x1 1 [12 8] 4.000000] (HELLO)
s 0.794061336 _2_ RTR  --- 0 AODV 44 [0 0 0 0] ------- [2:255 -1:255 1 0] [0x1 1 [2 6] 4.000000] (HELLO)
r 0.795197730 _16_ RTR  --- 0 AODV 44 [0 ffffffff 2 800] ------- [2:255 -1:255 1 0] [0x1 1 [2 6] 4.000000] (HELLO)
r 0.795198018 _17_ RTR  --- 0 AODV 44 [0 ffffffff 2 800] ------- [2:255 -1:255 1 0] [0x1 1 [2 6] 4.000000] (HELLO)
s 0.797069427 _18_ RTR  --- 0 AODV 44 [0 0 0 0] ------- [18:255 -1:255 1 0] [0x1 1 [18 8] 4.000000] (HELLO)
r 0.798345916 _9_ RTR  --- 0 AODV 44 [0 ffffffff 12 800] ------- [18:255 -1:255 1 0] [0x1 1 [18 8] 4.000000] (HELLO)
r 0.798346030 _3_ RTR  --- 0 AODV 44 [0 ffffffff 12 800] ------- [18:255 -1:255 1 0] [0x1 1 [18 8] 4.000000] (HELLO)
r 0.798346102 _8_ RTR  --- 0 AODV 44 [0 ffffffff 12 800] ------- [18:255 -1:255 1 0] [0x1 1 [18 8] 4.000000] (HELLO)
r 0.798346114 _6_ RTR  --- 0 AODV 44 [0 ffffffff 12 800] ------- [18:255 -1:255 1 0] [0x1 1 [18 8] 4.000000] (HELLO)
r 0.798346209 _25_ RTR  --- 0 AODV 44 [0 ffffffff 12 800] ------- [18:255 -1:255 1 0] [0x1 1 [18 8] 4.000000] (HELLO)
r 0.798346231 _4_ RTR  --- 0 AODV 44 [0 ffffffff 12 800] ------- [18:255 -1:255 1 0] [0x1 1 [18 8] 4.000000] (HELLO)
s 0.806904124 _14_ RTR  --- 0 AODV 44 [0 0 0 0] ------- [14:255 -1:255 1 0] [0x1 1 [14 8] 4.000000] (HELLO)
r 0.808320365 _4_ RTR  --- 0 AODV 44 [0 ffffffff e 800] ------- [14:255 -1:255 1 0] [0x1 1 [14 8] 4.000000] (HELLO)
r 0.808320531 _6_ RTR  --- 0 AODV 44 [0 ffffffff e 800] ------- [14:255 -1:255 1 0] [0x1 1 [14 8] 4.000000] (HELLO)
r 0.808320710 _27_ RTR  --- 0 AODV 44 [0 ffffffff e 800] ------- [14:255 -1:255 1 0] [0x1 1 [14 8] 4.000000] (HELLO)
r 0.808320733 _20_ RTR  --- 0 AODV 44 [0 ffffffff e 800] ------- [14:255 -1:255 1 0] [0x1 1 [14 8] 4.000000] (HELLO)
r 0.808320845 _28_ RTR  --- 0 AODV 44 [0 ffffffff e 800] ------- [14:255 -1:255 1 0] [0x1 1 [14 8] 4.000000] (HELLO)
r 0.808320846 _25_ RTR  --- 0 AODV 44 [0 ffffffff e 800] ------- [14:255 -1:255 1 0] [0x1 1 [14 8] 4.000000] (HELLO)
r 0.808320919 _9_ RTR  --- 0 AODV 44 [0 ffffffff e 800] ------- [14:255 -1:255 1 0] [0x1 1 [14 8] 4.000000] (HELLO)
s 0.832072703 _11_ RTR  --- 0 AODV 44 [0 0 0 0] ------- [11:255 -1:255 1 0] [0x1 1 [11 10] 4.000000] (HELLO)
r 0.833008813 _23_ RTR  --- 0 AODV 44 [0 ffffffff b 800] ------- [11:255 -1:255 1 0] [0x1 1 [11 10] 4.000000] (HELLO)
r 0.833009045 _26_ RTR  --- 0 AODV 44 [0 ffffffff b 800] ------- [11:255 -1:255 1 0] [0x1 1 [11 10] 4.000000] (HELLO)
r 0.833009370 _24_ RTR  --- 0 AODV 44 [0 ffffffff b 800] ------- [11:255 -1:255 1 0] [0x1 1 [11 10] 4.000000] (HELLO)
r 0.833009519 _5_ RTR  --- 0 AODV 44 [0 ffffffff b 800] ------- [11:255 -1:255 1 0] [0x1 1 [11 10] 4.000000] (HELLO)
s 0.837402627 _17_ RTR  --- 0 AODV 44 [0 0 0 0] ------- [17:255 -1:255 1 0] [0x1 1 [17 4] 4.000000] (HELLO)
r 0.838319309 _2_ RTR  --- 0 AODV 44 [0 ffffffff 11 800] ------- [17:255 -1:255 1 0] [0x1 1 [17 4] 4.000000] (HELLO)
s 0.858579730 _28_ RTR  --- 0 AODV 44 [0 0 0 0] ------- [28:255 -1:255 1 0] [0x1 1 [28 6] 4.000000] (HELLO)
r 0.860095880 _20_ RTR  --- 0 AODV 44 [0 ffffffff 1c 800] ------- [28:255 -1:255 1 0] [0x1 1 [28 6] 4.000000] (HELLO)
r 0.860096399 _24_ RTR  --- 0 AODV 44 [0 ffffffff 1c 800] ------- [28:255 -1:255 1 0] [0x1 1 [28 6] 4.000000] (HELLO)
r 0.860096450 _14_ RTR  --- 0 AODV 44 [0 ffffffff 1c 800] ------- [28:255 -1:255 1 0] [0x1 1 [28 6] 4.000000] (HELLO)
r 0.860096513 _27_ RTR  --- 0 AODV 44 [0 ffffffff 1c 800] ------- [28:255 -1:255 1 0] [0x1 1 [28 6] 4.000000] (HELLO)
s 0.867300876 _7_ RTR  --- 0 AODV 44 [0 0 0 0] ------- [7:255 -1:255 1 0] [0x1 1 [7 4] 4.000000] (HELLO)
r 0.868237568 _19_ RTR  --- 0 AODV 44 [0 ffffffff 7 800] ------- [7:255 -1:255 1 0] [0x1 1 [7 4] 4.000000] (HELLO)
r 0.868237628 _13_ RTR  --- 0 AODV 44 [0 ffffffff 7 800] ------- [7:255 -1:255 1 0] [0x1 1 [7 4] 4.000000] (HELLO)
s 0.870612814 _29_ RTR  --- 0 AODV 44 [0 0 0 0] ------- [29:255 -1:255 1 0] [0x1 1 [29 8] 4.000000] (HELLO)
r 0.871549047 _12_ RTR  --- 0 AODV 44 [0 ffffffff 1d 800] ------- [29:255 -1:255 1 0] [0x1 1 [29 8] 4.000000] (HELLO)
r 0.871549219 _13_ RTR  --- 0 AODV 44 [0 ffffffff 1d 800] ------- [29:255 -1:255 1 0] [0x1 1 [29 8] 4.000000] (HELLO)
r 0.871549573 _16_ RTR  --- 0 AODV 44 [0 ffffffff 1d 800] ------- [29:255 -1:255 1 0] [0x1 1 [29 8] 4.000000] (HELLO)
s 0.879043974 _21_ RTR  --- 0 AODV 44 [0 0 0 0] ------- [21:255 -1:255 1 0] [0x1 1 [21 8] 4.000000] (HELLO)
r 0.880400100 _0_ RTR  --- 0 AODV 44 [0 ffffffff 15 800] ------- [21:255 -1:255 1 0] [0x1 1 [21 8] 4.000000] (HELLO)
r 0.880400232 _1_ RTR  --- 0 AODV 44 [0 ffffffff 15 800] ------- [21:255 -1:255 1 0] [0x1 1 [21 8] 4.000000] (HELLO)
r 0.880400598 _15_ RTR  --- 0 AODV 44 [0 ffffffff 15 800] ------- [21:255 -1:255 1 0] [0x1 1 [21 8] 4.000000] (HELLO)
r 0.880400717 _10_ RTR  --- 0 AODV 44 [0 ffffffff 15 800] ------- [21:255 -1:255 1 0] [0x1 1 [21 8] 4.000000] (HELLO)
s 0.904539529 _9_ RTR  --- 0 AODV 44 [0 0 0 0] ------- [9:255 -1:255 1 0] [0x1 1 [9 12] 4.000000] (HELLO)
r 0.905775781 _3_ RTR  --- 0 AODV 44 [0 ffffffff 9 800] ------- [9:255 -1:255 1 0] [0x1 1 [9 12] 4.000000] (HELLO)
r 0.905775783 _8_ RTR  --- 0 AODV 44 [0 ffffffff 9 800] ------- [9:255 -1:255 1 0] [0x1 1 [9 12] 4.000000] (HELLO)
r 0.905775827 _25_ RTR  --- 0 AODV 44 [0 ffffffff 9 800] ------- [9:255 -1:255 1 0] [0x1 1 [9 12] 4.000000] (HELLO)
r 0.905776017 _18_ RTR  --- 0 AODV 44 [0 ffffffff 9 800] ------- [9:255 -1:255 1 0] [0x1 1 [9 12] 4.000000] (HELLO)
r 0.905776083 _4_ RTR  --- 0 AODV 44 [0 ffffffff 9 800] ------- [9:255 -1:255 1 0] [0x1 1 [9 12] 4.000000] (HELLO)
r 0.905776192 _6_ RTR  --- 0 AODV 44 [0 ffffffff 9 800] ------- [9:255 -1:255 1 0] [0x1 1 [9 12] 4.000000] (HELLO)
r 0.905776252 _22_ RTR  --- 0 AODV 44 [0 ffffffff 9 800] ------- [9:255 -1:255 1 0] [0x1 1 [9 12] 4.000000] (HELLO)
r 0.905776323 _14_ RTR  --- 0 AODV 44 [0 ffffffff 9 800] ------- [9:255 -1:255 1 0] [0x1 1 [9 12] 4.000000] (HELLO)
s 0.906480886 _5_ RTR  --- 0 AODV 44 [0 0 0 0] ------- [5:255 -1:255 1 0] [0x1 1 [5 10] 4.000000] (HELLO)
r 0.907577480 _24_ RTR  --- 0 AODV 44 [0 ffffffff 5 800] ------- [5:255 -1:255 1 0] [0x1 1 [5 10] 4.000000] (HELLO)
r 0.907577639 _10_ RTR  --- 0 AODV 44 [0 ffffffff 5 800] ------- [5:255 -1:255 1 0] [0x1 1 [5 10] 4.000000] (HELLO)
r 0.907577641 _26_ RTR  --- 0 AODV 44 [0 ffffffff 5 800] ------- [5:255 -1:255 1 0] [0x1 1 [5 10] 4.000000] (HELLO)
r 0.907577665 _27_ RTR  --- 0 AODV 44 [0 ffffffff 5 800] ------- [5:255 -1:255 1 0] [0x1 1 [5 10] 4.000000] (HELLO)
r 0.907577701 _11_ RTR  --- 0 AODV 44 [0 ffffffff 5 800] ------- [5:255 -1:255 1 0] [0x1 1 [5 10] 4.000000] (HELLO)
s 0.924370513 _20_ RTR  --- 0 AODV 44 [0 0 0 0] ------- [20:255 -1:255 1 0] [0x1 1 [20 6] 4.000000] (HELLO)
r 0.925286663 _28_ RTR  --- 0 AODV 44 [0 ffffffff 14 800] ------- [20:255 -1:255 1 0] [0x1 1 [20 6] 4.000000] (HELLO)
r 0.925287122 _14_ RTR  --- 0 AODV 44 [0 ffffffff 14 800] ------- [20:255 -1:255 1 0] [0x1 1 [20 6] 4.000000] (HELLO)
r 0.925287293 _27_ RTR  --- 0 AODV 44 [0 ffffffff 14 800] ------- [20:255 -1:255 1 0] [0x1 1 [20 6] 4.000000] (HELLO)
r 0.925287332 _24_ RTR  --- 0 AODV 44 [0 ffffffff 14 800] ------- [20:255 -1:255 1 0] [0x1 1 [20 6] 4.000000] (HELLO)
s 0.954342838 _22_ RTR  --- 0 AODV 44 [0 0 0 0] ------- [22:255 -1:255 1 0] [0x1 1 [22 8] 4.000000] (HELLO)
r 0.955799307 _8_ RTR  --- 0 AODV 44 [0 ffffffff 16 800] ------- [22:255 -1:255 1 0] [0x1 1 [22 8] 4.000000] (HELLO)
r 0.955799332 _3_ RTR  --- 0 AODV 44 [0 ffffffff 16 800] ------- [22:255 -1:255 1 0] [0x1 1 [22 8] 4.000000] (HELLO)
r 0.955799509 _25_ RTR  --- 0 AODV 44 [0 ffffffff 16 800] ------- [22:255 -1:255 1 0] [0x1 1 [22 8] 4.000000] (HELLO)
r 0.955799561 _9_ RTR  --- 0 AODV 44 [0 ffffffff 16 800] ------- [22:255 -1:255 1 0] [0x1 1 [22 8] 4.000000] (HELLO)
s 0.961828368 _16_ RTR  --- 0 AODV 44 [0 0 0 0] ------- [16:255 -1:255 1 0] [0x1 1 [16 10] 4.000000] (HELLO)
r 0.963324763 _2_ RTR  --- 0 AODV 44 [0 ffffffff 10 800] ------- [16:255 -1:255 1 0] [0x1 1 [16 10] 4.000000] (HELLO)
r 0.963324985 _13_ RTR  --- 0 AODV 44 [0 ffffffff 10 800] ------- [16:255 -1:255 1 0] [0x1 1 [16 10] 4.000000] (HELLO)
r 0.963325090 _12_ RTR  --- 0 AODV 44 [0 ffffffff 10 800] ------- [16:255 -1:255 1 0] [0x1 1 [16 10] 4.000000] (HELLO)
r 0.963325127 _29_ RTR  --- 0 AODV 44 [0 ffffffff 10 800] ------- [16:255 -1:255 1 0] [0x1 1 [16 10] 4.000000] (HELLO)
s 0.970586691 _3_ RTR  --- 0 AODV 44 [0 0 0 0] ------- [3:255 -1:255 1 0] [0x1 1 [3 10] 4.000000] (HELLO)
r 0.971642794 _8_ RTR  --- 0 AODV 44 [0 ffffffff 3 800] ------- [3:255 -1:255 1 0] [0x1 1 [3 10] 4.000000] (HELLO)
r 0.971642943 _9_ RTR  --- 0 AODV 44 [0 ffffffff 3 800] ------- [3:255 -1:255 1 0] [0x1 1 [3 10] 4.000000] (HELLO)
r 0.971643075 _25_ RTR  --- 0 AODV 44 [0 ffffffff 3 800] ------- [3:255 -1:255 1 0] [0x1 1 [3 10] 4.000000] (HELLO)
r 0.971643185 _22_ RTR  --- 0 AODV 44 [0 ffffffff 3 800] ------- [3:255 -1:255 1 0] [0x1 1 [3 10] 4.000000] (HELLO)
r 0.971643294 _18_ RTR  --- 0 AODV 44 [0 ffffffff 3 800] ------- [3:255 -1:255 1 0] [0x1 1 [3 10] 4.000000] (HELLO)
r 0.971643481 _4_ RTR  --- 0 AODV 44 [0 ffffffff 3 800] ------- [3:255 -1:255 1 0] [0x1 1 [3 10] 4.000000] (HELLO)
s 0.983057968 _24_ RTR  --- 0 AODV 44 [0 0 0 0] ------- [24:255 -1:255 1 0] [0x1 1 [24 12] 4.000000] (HELLO)
r 0.984074340 _26_ RTR  --- 0 AODV 44 [0 ffffffff 18 800] ------- [24:255 -1:255 1 0] [0x1 1 [24 12] 4.000000] (HELLO)
r 0.984074563 _5_ RTR  --- 0 AODV 44 [0 ffffffff 18 800] ------- [24:255 -1:255 1 0] [0x1 1 [24 12] 4.000000] (HELLO)
r 0.984074635 _11_ RTR  --- 0 AODV 44 [0 ffffffff 18 800] ------- [24:255 -1:255 1 0] [0x1 1 [24 12] 4.000000] (HELLO)
r 0.984074638 _28_ RTR  --- 0 AODV 44 [0 ffffffff 18 800] ------- [24:255 -1:255 1 0] [0x1 1 [24 12] 4.000000] (HELLO)
r 0.984074735 _23_ RTR  --- 0 AODV 44 [0 ffffffff 18 800] ------- [24:255 -1:255 1 0] [0x1 1 [24 12] 4.000000] (HELLO)
r 0.984074787 _20_ RTR  --- 0 AODV 44 [0 ffffffff 18 800] ------- [24:255 -1:255 1 0] [0x1 1 [24 12] 4.000000] (HELLO)
s 1.000000000 _8_ AGT  --- 0 tcp 40 [0 0 0 0] ------- [8:0 24:0 32 0] [0 0] 0 0
r 1.000000000 _8_ RTR  --- 0 tcp 40 [0 0 0 0] ------- [8:0 24:0 32 0] [0 0] 0 0
s 1.000000000 _8_ RTR  --- 0 AODV 48 [0 0 0 0] ------- [8:255 -1:255 30 0] [0x2 1 -1 [24 0] [8 12]] (REQUEST)
r 1.000948103 _3_ RTR  --- 0 AODV 48 [0 ffffffff 8 800] ------- [8:255 -1:255 30 0] [0x2 1 -1 [24 0] [8 12]] (REQUEST)
r 1.000948254 _9_ RTR  --- 0 AODV 48 [0 ffffffff 8 800] ------- [8:255 -1:255 30 0] [0x2 1 -1 [24 0] [8 12]] (REQUEST)
r 1.000948298 _25_ RTR  --- 0 AODV 48 [0 ffffffff 8 800] ------- [8:255 -1:255 30 0] [0x2 1 -1 [24 0] [8 12]] (REQUEST)
r 1.000948469 _22_ RTR  --- 0 AODV 48 [0 ffffffff 8 800] ------- [8:255 -1:255 30 0] [0x2 1 -1 [24 0] [8 12]] (REQUEST)
r 1.000948675 _18_ RTR  --- 0 AODV 48 [0 ffffffff 8 800] ------- [8:255 -1:255 30 0] [0x2 1 -1 [24 0] [8 12]] (REQUEST)
r 1.000948747 _4_ RTR  --- 0 AODV 48 [0 ffffffff 8 800] ------- [8:255 -1:255 30 0] [0x2 1 -1 [24 0] [8 12]] (REQUEST)
s 1.001613598 _4_ RTR  --- 0 AODV 48 [0 ffffffff 8 800] ------- [4:255 -1:255 29 0] [0x2 2 -1 [24 0] [8 12]] (REQUEST)
s 1.002466193 _9_ RTR  --- 0 AODV 48 [0 ffffffff 8 800] ------- [9:255 -1:255 29 0] [0x2 2 -1 [24 0] [8 12]] (REQUEST)
r 1.003061838 _14_ RTR  --- 0 AODV 48 [0 ffffffff 4 800] ------- [4:255 -1:255 29 0] [0x2 2 -1 [24 0] [8 12]] (REQUEST)
r 1.003061923 _6_ RTR  --- 0 AODV 48 [0 ffffffff 4 800] ------- [4:255 -1:255 29 0] [0x2 2 -1 [24 0] [8 12]] (REQUEST)
r 1.003062113 _25_ RTR  --- 0 AODV 48 [0 ffffffff 4 800] ------- [4:255 -1:255 29 0] [0x2 2 -1 [24 0] [8 12]] (REQUEST)
r 1.003062152 _9_ RTR  --- 0 AODV 48 [0 ffffffff 4 800] ------- [4:255 -1:255 29 0] [0x2 2 -1 [24 0] [8 12]] (REQUEST)
r 1.003062218 _27_ RTR  --- 0 AODV 48 [0 ffffffff 4 800] ------- [4:255 -1:255 29 0] [0x2 2 -1 [24 0] [8 12]] (REQUEST)
r 1.003062345 _8_ RTR  --- 0 AODV 48 [0 ffffffff 4 800] ------- [4:255 -1:255 29 0] [0x2 2 -1 [24 0] [8 12]] (REQUEST)
r 1.003062387 _3_ RTR  --- 0 AODV 48 [0 ffffffff 4 800] ------- [4:255 -1:255 29 0] [0x2 2 -1 [24 0] [8 12]] (REQUEST)
r 1.003062401 _18_ RTR  --- 0 AODV 48 [0 ffffffff 4 800] ------- [4:255 -1:255 29 0] [0x2 2 -1 [24 0] [8 12]] (REQUEST)
r 1.004560404 _3_ RTR  --- 0 AODV 48 [0 ffffffff 9 800] ------- [9:255 -1:255 29 0] [0x2 2 -1 [24 0] [8 12]] (REQUEST)
r 1.004560406 _8_ RTR  --- 0 AODV 48 [0 ffffffff 9 800] ------- [9:255 -1:255 29 0] [0x2 2 -1 [24 0] [8 12]] (REQUEST)
r 1.004560450 _25_ RTR  --- 0 AODV 48 [0 ffffffff 9 800] ------- [9:255 -1:255 29 0] [0x2 2 -1 [24 0] [8 12]] (REQUEST)
r 1.004560641 _18_ RTR  --- 0 AODV 48 [0 ffffffff 9 800] ------- [9:255 -1:255 29 0] [0x2 2 -1 [24 0] [8 12]] (REQUEST)
r 1.004560707 _4_ RTR  --- 0 AODV 48 [0 ffffffff 9 800] ------- [9:255 -1:255 29 0] [0x2 2 -1 [24 0] [8 12]] (REQUEST)
r 1.004560815 _6_ RTR  --- 0 AODV 48 [0 ffffffff 9 800] ------- [9:255 -1:255 29 0] [0x2 2 -1 [24 0] [8 12]] (REQUEST)
r 1.004560875 _22_ RTR  --- 0 AODV 48 [0 ffffffff 9 800] ------- [9:255 -1:255 29 0] [0x2 2 -1 [24 0] [8 12]] (REQUEST)
r 1.004560946 _14_ RTR  --- 0 AODV 48 [0 ffffffff 9 800] ------- [9:255 -1:255 29 0] [0x2 2 -1 [24 0] [8 12]] (REQUEST)
s 1.005690531 _6_ RTR  --- 0 AODV 48 [0 ffffffff 4 800] ------- [6:255 -1:255 28 0] [0x2 3 -1 [24 0] [8 12]] (REQUEST)
s 1.006302201 _18_ RTR  --- 0 AODV 48 [0 ffffffff 8 800] ------- [18:255 -1:255 29 0] [0x2 2 -1 [24 0] [8 12]] (REQUEST)
s 1.006350786 _22_ RTR  --- 0 AODV 48 [0 ffffffff 8 800] ------- [22:255 -1:255 29 0] [0x2 2 -1 [24 0] [8 12]] (REQUEST)
r 1.006998856 _4_ RTR  --- 0 AODV 48 [0 ffffffff 6 800] ------- [6:255 -1:255 28 0] [0x2 3 -1 [24 0] [8 12]] (REQUEST)
r 1.006998866 _27_ RTR  --- 0 AODV 48 [0 ffffffff 6 800] ------- [6:255 -1:255 28 0] [0x2 3 -1 [24 0] [8 12]] (REQUEST)
r 1.006998938 _14_ RTR  --- 0 AODV 48 [0 ffffffff 6 800] ------- [6:255 -1:255 28 0] [0x2 3 -1 [24 0] [8 12]] (REQUEST)
r 1.006999194 _9_ RTR  --- 0 AODV 48 [0 ffffffff 6 800] ------- [6:255 -1:255 28 0] [0x2 3 -1 [24 0] [8 12]] (REQUEST)
r 1.006999218 _18_ RTR  --- 0 AODV 48 [0 ffffffff 6 800] ------- [6:255 -1:255 28 0] [0x2 3 -1 [24 0] [8 12]] (REQUEST)
r 1.006999286 _25_ RTR  --- 0 AODV 48 [0 ffffffff 6 800] ------- [6:255 -1:255 28 0] [0x2 3 -1 [24 0] [8 12]] (REQUEST)
s 1.007857380 _27_ RTR  --- 0 AODV 48 [0 ffffffff 4 800] ------- [27:255 -1:255 28 0] [0x2 3 -1 [24 0] [8 12]] (REQUEST)