s 0.000000000 _0_ RTR  --- 0 AODV 44 [0 0 0 0] ------- [0:255 -1:255 1 0] [0x1 1 [0 2] 4.000000] (HELLO)
s 0.000000000 _1_ RTR  --- 0 AODV 44 [0 0 0 0] ------- [1:255 -1:255 1 0] [0x1 1 [1 2] 4.000000] (HELLO)
s 0.000000000 _2_ RTR  --- 0 AODV 44 [0 0 0 0] ------- [2:255 -1:255 1 0] [0x1 1 [2 2] 4.000000] (HELLO)
s 0.000000000 _3_ RTR  --- 0 AODV 44 [0 0 0 0] ------- [3:255 -1:255 1 0] [0x1 1 [3 2] 4.000000] (HELLO)
s 0.000000000 _4_ RTR  --- 0 AODV 44 [0 0 0 0] ------- [4:255 -1:255 1 0] [0x1 1 [4 2] 4.000000] (HELLO)
s 0.000000000 _5_ RTR  --- 0 AODV 44 [0 0 0 0] ------- [5:255 -1:255 1 0] [0x1 1 [5 2] 4.000000] (HELLO)
s 0.000000000 _6_ RTR  --- 0 AODV 44 [0 0 0 0] ------- [6:255 -1:255 1 0] [0x1 1 [6 2] 4.000000] (HELLO)
s 0.000000000 _7_ RTR  --- 0 AODV 44 [0 0 0 0] ------- [7:255 -1:255 1 0] [0x1 1 [7 2] 4.000000] (HELLO)
s 0.000000000 _8_ RTR  --- 0 AODV 44 [0 0 0 0] ------- [8:255 -1:255 1 0] [0x1 1 [8 2] 4.000000] (HELLO)
s 0.000000000 _9_ RTR  --- 0 AODV 44 [0 0 0 0] ------- [9:255 -1:255 1 0] [0x1 1 [9 2] 4.000000] (HELLO)
s 0.000000000 _10_ RTR  --- 0 AODV 44 [0 0 0 0] ------- [10:255 -1:255 1 0] [0x1 1 [10 2] 4.000000] (HELLO)
s 0.000000000 _11_ RTR  --- 0 AODV 44 [0 0 0 0] ------- [11:255 -1:255 1 0] [0x1 1 [11 2] 4.000000] (HELLO)
s 0.000000000 _12_ RTR  --- 0 AODV 44 [0 0 0 0] ------- [12:255 -1:255 1 0] [0x1 1 [12 2] 4.000000] (HELLO)
s 0.000000000 _13_ RTR  --- 0 AODV 44 [0 0 0 0] ------- [13:255 -1:255 1 0] [0x1 1 [13 2] 4.000000] (HELLO)
s 0.000000000 _14_ RTR  --- 0 AODV 44 [0 0 0 0] ------- [14:255 -1:255 1 0] [0x1 1 [14 2] 4.000000] (HELLO)
s 0.000000000 _15_ RTR  --- 0 AODV 44 [0 0 0 0] ------- [15:255 -1:255 1 0] [0x1 1 [15 2] 4.000000] (HELLO)
s 0.000000000 _16_ RTR  --- 0 AODV 44 [0 0 0 0] ------- [16:255 -1:255 1 0] [0x1 1 [16 2] 4.000000] (HELLO)
s 0.000000000 _17_ RTR  --- 0 AODV 44 [0 0 0 0] ------- [17:255 -1:255 1 0] [0x1 1 [17 2] 4.000000] (HELLO)
s 0.000000000 _18_ RTR  --- 0 AODV 44 [0 0 0 0] ------- [18:255 -1:255 1 0] [0x1 1 [18 2] 4.000000] (HELLO)
s 0.000000000 _19_ RTR  --- 0 AODV 44 [0 0 0 0] ------- [19:255 -1:255 1 0] [0x1 1 [19 2] 4.000000] (HELLO)
s 0.000000000 _20_ RTR  --- 0 AODV 44 [0 0 0 0] ------- [20:255 -1:255 1 0] [0x1 1 [20 2] 4.000000] (HELLO)
s 0.000000000 _21_ RTR  --- 0 AODV 44 [0 0 0 0] ------- [21:255 -1:255 1 0] [0x1 1 [21 2] 4.000000] (HELLO)
s 0.000000000 _22_ RTR  --- 0 AODV 44 [0 0 0 0] ------- [22:255 -1:255 1 0] [0x1 1 [22 2] 4.000000] (HELLO)
s 0.000000000 _23_ RTR  --- 0 AODV 44 [0 0 0 0] ------- [23:255 -1:255 1 0] [0x1 1 [23 2] 4.000000] (HELLO)
s 0.000000000 _24_ RTR  --- 0 AODV 44 [0 0 0 0] ------- [24:255 -1:255 1 0] [0x1 1 [24 2] 4.000000] (HELLO)
s 0.000000000 _25_ RTR  --- 0 AODV 44 [0 0 0 0] ------- [25:255 -1:255 1 0] [0x1 1 [25 2] 4.000000] (HELLO)
s 0.000000000 _26_ RTR  --- 0 AODV 44 [0 0 0 0] ------- [26:255 -1:255 1 0] [0x1 1 [26 2] 4.000000] (HELLO)
s 0.000000000 _27_ RTR  --- 0 AODV 44 [0 0 0 0] ------- [27:255 -1:255 1 0] [0x1 1 [27 2] 4.000000] (HELLO)
s 0.000000000 _28_ RTR  --- 0 AODV 44 [0 0 0 0] ------- [28:255 -1:255 1 0] [0x1 1 [28 2] 4.000000] (HELLO)
s 0.000000000 _29_ RTR  --- 0 AODV 44 [0 0 0 0] ------- [29:255 -1:255 1 0] [0x1 1 [29 2] 4.000000] (HELLO)
s 0.000000000 _30_ RTR  --- 0 AODV 44 [0 0 0 0] ------- [30:255 -1:255 1 0] [0x1 1 [30 2] 4.000000] (HELLO)
s 0.000000000 _31_ RTR  --- 0 AODV 44 [0 0 0 0] ------- [31:255 -1:255 1 0] [0x1 1 [31 2] 4.000000] (HELLO)
s 0.000000000 _32_ RTR  --- 0 AODV 44 [0 0 0 0] ------- [32:255 -1:255 1 0] [0x1 1 [32 2] 4.000000] (HELLO)
s 0.000000000 _33_ RTR  --- 0 AODV 44 [0 0 0 0] ------- [33:255 -1:255 1 0] [0x1 1 [33 2] 4.000000] (HELLO)
s 0.000000000 _34_ RTR  --- 0 AODV 44 [0 0 0 0] ------- [34:255 -1:255 1 0] [0x1 1 [34 2] 4.000000] (HELLO)
s 0.000000000 _35_ RTR  --- 0 AODV 44 [0 0 0 0] ------- [35:255 -1:255 1 0] [0x1 1 [35 2] 4.000000] (HELLO)
s 0.000000000 _36_ RTR  --- 0 AODV 44 [0 0 0 0] ------- [36:255 -1:255 1 0] [0x1 1 [36 2] 4.000000] (HELLO)
s 0.000000000 _37_ RTR  --- 0 AODV 44 [0 0 0 0] ------- [37:255 -1:255 1 0] [0x1 1 [37 2] 4.000000] (HELLO)
s 0.000000000 _38_ RTR  --- 0 AODV 44 [0 0 0 0] ------- [38:255 -1:255 1 0] [0x1 1 [38 2] 4.000000] (HELLO)
s 0.000000000 _39_ RTR  --- 0 AODV 44 [0 0 0 0] ------- [39:255 -1:255 1 0] [0x1 1 [39 2] 4.000000] (HELLO)
s 0.000000000 _40_ RTR  --- 0 AODV 44 [0 0 0 0] ------- [40:255 -1:255 1 0] [0x1 1 [40 2] 4.000000] (HELLO)
s 0.000000000 _41_ RTR  --- 0 AODV 44 [0 0 0 0] ------- [41:255 -1:255 1 0] [0x1 1 [41 2] 4.000000] (HELLO)
s 0.000000000 _42_ RTR  --- 0 AODV 44 [0 0 0 0] ------- [42:255 -1:255 1 0] [0x1 1 [42 2] 4.000000] (HELLO)
s 0.000000000 _43_ RTR  --- 0 AODV 44 [0 0 0 0] ------- [43:255 -1:255 1 0] [0x1 1 [43 2] 4.000000] (HELLO)
s 0.000000000 _44_ RTR  --- 0 AODV 44 [0 0 0 0] ------- [44:255 -1:255 1 0] [0x1 1 [44 2] 4.000000] (HELLO)
s 0.000000000 _45_ RTR  --- 0 AODV 44 [0 0 0 0] ------- [45:255 -1:255 1 0] [0x1 1 [45 2] 4.000000] (HELLO)
s 0.000000000 _46_ RTR  --- 0 AODV 44 [0 0 0 0] ------- [46:255 -1:255 1 0] [0x1 1 [46 2] 4.000000] (HELLO)
s 0.000000000 _47_ RTR  --- 0 AODV 44 [0 0 0 0] ------- [47:255 -1:255 1 0] [0x1 1 [47 2] 4.000000] (HELLO)
s 0.000000000 _48_ RTR  --- 0 AODV 44 [0 0 0 0] ------- [48:255 -1:255 1 0] [0x1 1 [48 2] 4.000000] (HELLO)
s 0.000000000 _49_ RTR  --- 0 AODV 44 [0 0 0 0] ------- [49:255 -1:255 1 0] [0x1 1 [49 2] 4.000000] (HELLO)
r 0.000916070 _17_ RTR  --- 0 AODV 44 [0 ffffffff 7 800] ------- [7:255 -1:255 1 0] [0x1 1 [7 2] 4.000000] (HELLO)
r 0.000916196 _31_ RTR  --- 0 AODV 44 [0 ffffffff 0 800] ------- [0:255 -1:255 1 0] [0x1 1 [0 2] 4.000000] (HELLO)
r 0.000916201 _16_ RTR  --- 0 AODV 44 [0 ffffffff 7 800] ------- [7:255 -1:255 1 0] [0x1 1 [7 2] 4.000000] (HELLO)
r 0.000916245 _10_ RTR  --- 0 AODV 44 [0 ffffffff 30 800] ------- [48:255 -1:255 1 0] [0x1 1 [48 2] 4.000000] (HELLO)
r 0.000916351 _44_ RTR  --- 0 AODV 44 [0 ffffffff 7 800] ------- [7:255 -1:255 1 0] [0x1 1 [7 2] 4.000000] (HELLO)
r 0.000916384 _41_ RTR  --- 0 AODV 44 [0 ffffffff 30 800] ------- [48:255 -1:255 1 0] [0x1 1 [48 2] 4.000000] (HELLO)
r 0.000916408 _11_ RTR  --- 0 AODV 44 [0 ffffffff 7 800] ------- [7:255 -1:255 1 0] [0x1 1 [7 2] 4.000000] (HELLO)
r 0.000916422 _24_ RTR  --- 0 AODV 44 [0 ffffffff 30 800] ------- [48:255 -1:255 1 0] [0x1 1 [48 2] 4.000000] (HELLO)
r 0.000916449 _28_ RTR  --- 0 AODV 44 [0 ffffffff 0 800] ------- [0:255 -1:255 1 0] [0x1 1 [0 2] 4.000000] (HELLO)
r 0.000916461 _33_ RTR  --- 0 AODV 44 [0 ffffffff 7 800] ------- [7:255 -1:255 1 0] [0x1 1 [7 2] 4.000000] (HELLO)
r 0.000916462 _23_ RTR  --- 0 AODV 44 [0 ffffffff 7 800] ------- [7:255 -1:255 1 0] [0x1 1 [7 2] 4.000000] (HELLO)
r 0.000916520 _21_ RTR  --- 0 AODV 44 [0 ffffffff 7 800] ------- [7:255 -1:255 1 0] [0x1 1 [7 2] 4.000000] (HELLO)
r 0.000916566 _20_ RTR  --- 0 AODV 44 [0 ffffffff 30 800] ------- [48:255 -1:255 1 0] [0x1 1 [48 2] 4.000000] (HELLO)
r 0.000916581 _27_ RTR  --- 0 AODV 44 [0 ffffffff 7 800] ------- [7:255 -1:255 1 0] [0x1 1 [7 2] 4.000000] (HELLO)
r 0.000916617 _49_ RTR  --- 0 AODV 44 [0 ffffffff 7 800] ------- [7:255 -1:255 1 0] [0x1 1 [7 2] 4.000000] (HELLO)
r 0.000916655 _40_ RTR  --- 0 AODV 44 [0 ffffffff 30 800] ------- [48:255 -1:255 1 0] [0x1 1 [48 2] 4.000000] (HELLO)
r 0.000916669 _32_ RTR  --- 0 AODV 44 [0 ffffffff 0 800] ------- [0:255 -1:255 1 0] [0x1 1 [0 2] 4.000000] (HELLO)
r 0.000916742 _18_ RTR  --- 0 AODV 44 [0 ffffffff 7 800] ------- [7:255 -1:255 1 0] [0x1 1 [7 2] 4.000000] (HELLO)
r 0.000916829 _5_ RTR  --- 0 AODV 44 [0 ffffffff 0 800] ------- [0:255 -1:255 1 0] [0x1 1 [0 2] 4.000000] (HELLO)
r 0.001076390 _6_ RTR  --- 0 AODV 44 [0 ffffffff 3 800] ------- [3:255 -1:255 1 0] [0x1 1 [3 2] 4.000000] (HELLO)
r 0.001802722 _21_ RTR  --- 0 AODV 44 [0 ffffffff b 800] ------- [11:255 -1:255 1 0] [0x1 1 [11 2] 4.000000] (HELLO)
r 0.001802765 _44_ RTR  --- 0 AODV 44 [0 ffffffff b 800] ------- [11:255 -1:255 1 0] [0x1 1 [11 2] 4.000000] (HELLO)
r 0.001802765 _17_ RTR  --- 0 AODV 44 [0 ffffffff b 800] ------- [11:255 -1:255 1 0] [0x1 1 [11 2] 4.000000] (HELLO)
r 0.001802816 _7_ RTR  --- 0 AODV 44 [0 ffffffff b 800] ------- [11:255 -1:255 1 0] [0x1 1 [11 2] 4.000000] (HELLO)
r 0.001802875 _16_ RTR  --- 0 AODV 44 [0 ffffffff b 800] ------- [11:255 -1:255 1 0] [0x1 1 [11 2] 4.000000] (HELLO)
r 0.001802939 _30_ RTR  --- 0 AODV 44 [0 ffffffff b 800] ------- [11:255 -1:255 1 0] [0x1 1 [11 2] 4.000000] (HELLO)
r 0.001803058 _33_ RTR  --- 0 AODV 44 [0 ffffffff b 800] ------- [11:255 -1:255 1 0] [0x1 1 [11 2] 4.000000] (HELLO)
r 0.001803122 _18_ RTR  --- 0 AODV 44 [0 ffffffff b 800] ------- [11:255 -1:255 1 0] [0x1 1 [11 2] 4.000000] (HELLO)
r 0.001803132 _23_ RTR  --- 0 AODV 44 [0 ffffffff b 800] ------- [11:255 -1:255 1 0] [0x1 1 [11 2] 4.000000] (HELLO)
r 0.002082781 _3_ RTR  --- 0 AODV 44 [0 ffffffff 6 800] ------- [6:255 -1:255 1 0] [0x1 1 [6 2] 4.000000] (HELLO)
r 0.002082824 _9_ RTR  --- 0 AODV 44 [0 ffffffff 6 800] ------- [6:255 -1:255 1 0] [0x1 1 [6 2] 4.000000] (HELLO)
r 0.002082907 _36_ RTR  --- 0 AODV 44 [0 ffffffff 6 800] ------- [6:255 -1:255 1 0] [0x1 1 [6 2] 4.000000] (HELLO)
r 0.002082910 _13_ RTR  --- 0 AODV 44 [0 ffffffff 6 800] ------- [6:255 -1:255 1 0] [0x1 1 [6 2] 4.000000] (HELLO)
r 0.002083105 _42_ RTR  --- 0 AODV 44 [0 ffffffff 6 800] ------- [6:255 -1:255 1 0] [0x1 1 [6 2] 4.000000] (HELLO)
r 0.002083138 _37_ RTR  --- 0 AODV 44 [0 ffffffff 6 800] ------- [6:255 -1:255 1 0] [0x1 1 [6 2] 4.000000] (HELLO)
r 0.002207196 _48_ RTR  --- 0 AODV 44 [0 ffffffff 18 800] ------- [24:255 -1:255 1 0] [0x1 1 [24 2] 4.000000] (HELLO)
r 0.002207259 _47_ RTR  --- 0 AODV 44 [0 ffffffff 18 800] ------- [24:255 -1:255 1 0] [0x1 1 [24 2] 4.000000] (HELLO)
r 0.002207426 _20_ RTR  --- 0 AODV 44 [0 ffffffff 18 800] ------- [24:255 -1:255 1 0] [0x1 1 [24 2] 4.000000] (HELLO)
r 0.002207642 _32_ RTR  --- 0 AODV 44 [0 ffffffff 1c 800] ------- [28:255 -1:255 1 0] [0x1 1 [28 2] 4.000000] (HELLO)
r 0.002709076 _7_ RTR  --- 0 AODV 44 [0 ffffffff 10 800] ------- [16:255 -1:255 1 0] [0x1 1 [16 2] 4.000000] (HELLO)
r 0.002709106 _44_ RTR  --- 0 AODV 44 [0 ffffffff 10 800] ------- [16:255 -1:255 1 0] [0x1 1 [16 2] 4.000000] (HELLO)
r 0.002709130 _17_ RTR  --- 0 AODV 44 [0 ffffffff 10 800] ------- [16:255 -1:255 1 0] [0x1 1 [16 2] 4.000000] (HELLO)
r 0.002709342 _11_ RTR  --- 0 AODV 44 [0 ffffffff 10 800] ------- [16:255 -1:255 1 0] [0x1 1 [16 2] 4.000000] (HELLO)
r 0.002709523 _23_ RTR  --- 0 AODV 44 [0 ffffffff 10 800] ------- [16:255 -1:255 1 0] [0x1 1 [16 2] 4.000000] (HELLO)
r 0.002709534 _33_ RTR  --- 0 AODV 44 [0 ffffffff 10 800] ------- [16:255 -1:255 1 0] [0x1 1 [16 2] 4.000000] (HELLO)
r 0.002709545 _21_ RTR  --- 0 AODV 44 [0 ffffffff 10 800] ------- [16:255 -1:255 1 0] [0x1 1 [16 2] 4.000000] (HELLO)
r 0.002709626 _4_ RTR  --- 0 AODV 44 [0 ffffffff 10 800] ------- [16:255 -1:255 1 0] [0x1 1 [16 2] 4.000000] (HELLO)
r 0.003249138 _37_ RTR  --- 0 AODV 44 [0 ffffffff 24 800] ------- [36:255 -1:255 1 0] [0x1 1 [36 2] 4.000000] (HELLO)
r 0.003249201 _9_ RTR  --- 0 AODV 44 [0 ffffffff 24 800] ------- [36:255 -1:255 1 0] [0x1 1 [36 2] 4.000000] (HELLO)
r 0.003249265 _3_ RTR  --- 0 AODV 44 [0 ffffffff 24 800] ------- [36:255 -1:255 1 0] [0x1 1 [36 2] 4.000000] (HELLO)
r 0.003249330 _35_ RTR  --- 0 AODV 44 [0 ffffffff 24 800] ------- [36:255 -1:255 1 0] [0x1 1 [36 2] 4.000000] (HELLO)
r 0.003249424 _6_ RTR  --- 0 AODV 44 [0 ffffffff 24 800] ------- [36:255 -1:255 1 0] [0x1 1 [36 2] 4.000000] (HELLO)
r 0.003249520 _13_ RTR  --- 0 AODV 44 [0 ffffffff 24 800] ------- [36:255 -1:255 1 0] [0x1 1 [36 2] 4.000000] (HELLO)
r 0.003518198 _32_ RTR  --- 0 AODV 44 [0 ffffffff 5 800] ------- [5:255 -1:255 1 0] [0x1 1 [5 2] 4.000000] (HELLO)
r 0.003518420 _28_ RTR  --- 0 AODV 44 [0 ffffffff 5 800] ------- [5:255 -1:255 1 0] [0x1 1 [5 2] 4.000000] (HELLO)
r 0.003595859 _11_ RTR  --- 0 AODV 44 [0 ffffffff 15 800] ------- [21:255 -1:255 1 0] [0x1 1 [21 2] 4.000000] (HELLO)
r 0.003595918 _30_ RTR  --- 0 AODV 44 [0 ffffffff 15 800] ------- [21:255 -1:255 1 0] [0x1 1 [21 2] 4.000000] (HELLO)
r 0.003595995 _17_ RTR  --- 0 AODV 44 [0 ffffffff 15 800] ------- [21:255 -1:255 1 0] [0x1 1 [21 2] 4.000000] (HELLO)
r 0.003596035 _33_ RTR  --- 0 AODV 44 [0 ffffffff 15 800] ------- [21:255 -1:255 1 0] [0x1 1 [21 2] 4.000000] (HELLO)
r 0.003596065 _7_ RTR  --- 0 AODV 44 [0 ffffffff 15 800] ------- [21:255 -1:255 1 0] [0x1 1 [21 2] 4.000000] (HELLO)
r 0.003596147 _23_ RTR  --- 0 AODV 44 [0 ffffffff 15 800] ------- [21:255 -1:255 1 0] [0x1 1 [21 2] 4.000000] (HELLO)
r 0.003596185 _44_ RTR  --- 0 AODV 44 [0 ffffffff 15 800] ------- [21:255 -1:255 1 0] [0x1 1 [21 2] 4.000000] (HELLO)
r 0.003596214 _16_ RTR  --- 0 AODV 44 [0 ffffffff 15 800] ------- [21:255 -1:255 1 0] [0x1 1 [21 2] 4.000000] (HELLO)
r 0.004000707 _22_ RTR  --- 0 AODV 44 [0 ffffffff e 800] ------- [14:255 -1:255 1 0] [0x1 1 [14 2] 4.000000] (HELLO)
r 0.004542291 _21_ RTR  --- 0 AODV 44 [0 ffffffff 1e 800] ------- [30:255 -1:255 1 0] [0x1 1 [30 2] 4.000000] (HELLO)
r 0.004542448 _11_ RTR  --- 0 AODV 44 [0 ffffffff 1e 800] ------- [30:255 -1:255 1 0] [0x1 1 [30 2] 4.000000] (HELLO)
r 0.004542536 _18_ RTR  --- 0 AODV 44 [0 ffffffff 1e 800] ------- [30:255 -1:255 1 0] [0x1 1 [30 2] 4.000000] (HELLO)
r 0.004542718 _17_ RTR  --- 0 AODV 44 [0 ffffffff 1e 800] ------- [30:255 -1:255 1 0] [0x1 1 [30 2] 4.000000] (HELLO)
r 0.004867512 _36_ RTR  --- 0 AODV 44 [0 ffffffff 25 800] ------- [37:255 -1:255 1 0] [0x1 1 [37 2] 4.000000] (HELLO)
r 0.004867742 _9_ RTR  --- 0 AODV 44 [0 ffffffff 25 800] ------- [37:255 -1:255 1 0] [0x1 1 [37 2] 4.000000] (HELLO)
r 0.004867821 _3_ RTR  --- 0 AODV 44 [0 ffffffff 25 800] ------- [37:255 -1:255 1 0] [0x1 1 [37 2] 4.000000] (HELLO)
r 0.004868029 _6_ RTR  --- 0 AODV 44 [0 ffffffff 25 800] ------- [37:255 -1:255 1 0] [0x1 1 [37 2] 4.000000] (HELLO)
r 0.004868033 _38_ RTR  --- 0 AODV 44 [0 ffffffff 25 800] ------- [37:255 -1:255 1 0] [0x1 1 [37 2] 4.000000] (HELLO)
r 0.004868051 _13_ RTR  --- 0 AODV 44 [0 ffffffff 25 800] ------- [37:255 -1:255 1 0] [0x1 1 [37 2] 4.000000] (HELLO)
r 0.005312359 _24_ RTR  --- 0 AODV 44 [0 ffffffff 2f 800] ------- [47:255 -1:255 1 0] [0x1 1 [47 2] 4.000000] (HELLO)
r 0.005312402 _31_ RTR  --- 0 AODV 44 [0 ffffffff 2f 800] ------- [47:255 -1:255 1 0] [0x1 1 [47 2] 4.000000] (HELLO)
r 0.005312562 _20_ RTR  --- 0 AODV 44 [0 ffffffff 2f 800] ------- [47:255 -1:255 1 0] [0x1 1 [47 2] 4.000000] (HELLO)
r 0.005312597 _0_ RTR  --- 0 AODV 44 [0 ffffffff 2f 800] ------- [47:255 -1:255 1 0] [0x1 1 [47 2] 4.000000] (HELLO)
r 0.005874371 _9_ RTR  --- 0 AODV 44 [0 ffffffff d 800] ------- [13:255 -1:255 1 0] [0x1 1 [13 2] 4.000000] (HELLO)
r 0.005874570 _6_ RTR  --- 0 AODV 44 [0 ffffffff d 800] ------- [13:255 -1:255 1 0] [0x1 1 [13 2] 4.000000] (HELLO)
r 0.005874664 _36_ RTR  --- 0 AODV 44 [0 ffffffff d 800] ------- [13:255 -1:255 1 0] [0x1 1 [13 2] 4.000000] (HELLO)
r 0.005874820 _37_ RTR  --- 0 AODV 44 [0 ffffffff d 800] ------- [13:255 -1:255 1 0] [0x1 1 [13 2] 4.000000] (HELLO)
r 0.005874826 _3_ RTR  --- 0 AODV 44 [0 ffffffff d 800] ------- [13:255 -1:255 1 0] [0x1 1 [13 2] 4.000000] (HELLO)
r 0.005874856 _35_ RTR  --- 0 AODV 44 [0 ffffffff d 800] ------- [13:255 -1:255 1 0] [0x1 1 [13 2] 4.000000] (HELLO)
r 0.005874870 _38_ RTR  --- 0 AODV 44 [0 ffffffff d 800] ------- [13:255 -1:255 1 0] [0x1 1 [13 2] 4.000000] (HELLO)
r 0.005974177 _44_ RTR  --- 0 AODV 44 [0 ffffffff 4 800] ------- [4:255 -1:255 1 0] [0x1 1 [4 2] 4.000000] (HELLO)
r 0.006698608 _39_ RTR  --- 0 AODV 44 [0 ffffffff 1a 800] ------- [26:255 -1:255 1 0] [0x1 1 [26 2] 4.000000] (HELLO)
r 0.007164593 _13_ RTR  --- 0 AODV 44 [0 ffffffff 2a 800] ------- [42:255 -1:255 1 0] [0x1 1 [42 2] 4.000000] (HELLO)
r 0.007164612 _2_ RTR  --- 0 AODV 44 [0 ffffffff 2a 800] ------- [42:255 -1:255 1 0] [0x1 1 [42 2] 4.000000] (HELLO)
r 0.007164812 _34_ RTR  --- 0 AODV 44 [0 ffffffff 2a 800] ------- [42:255 -1:255 1 0] [0x1 1 [42 2] 4.000000] (HELLO)
r 0.007164859 _12_ RTR  --- 0 AODV 44 [0 ffffffff 2a 800] ------- [42:255 -1:255 1 0] [0x1 1 [42 2] 4.000000] (HELLO)
r 0.007164932 _45_ RTR  --- 0 AODV 44 [0 ffffffff 2a 800] ------- [42:255 -1:255 1 0] [0x1 1 [42 2] 4.000000] (HELLO)
r 0.007165037 _6_ RTR  --- 0 AODV 44 [0 ffffffff 2a 800] ------- [42:255 -1:255 1 0] [0x1 1 [42 2] 4.000000] (HELLO)
r 0.007265139 _14_ RTR  --- 0 AODV 44 [0 ffffffff 16 800] ------- [22:255 -1:255 1 0] [0x1 1 [22 2] 4.000000] (HELLO)
r 0.007265355 _15_ RTR  --- 0 AODV 44 [0 ffffffff 16 800] ------- [22:255 -1:255 1 0] [0x1 1 [22 2] 4.000000] (HELLO)
r 0.007265478 _19_ RTR  --- 0 AODV 44 [0 ffffffff 16 800] ------- [22:255 -1:255 1 0] [0x1 1 [22 2] 4.000000] (HELLO)
r 0.007265560 _29_ RTR  --- 0 AODV 44 [0 ffffffff 16 800] ------- [22:255 -1:255 1 0] [0x1 1 [22 2] 4.000000] (HELLO)
r 0.007265587 _1_ RTR  --- 0 AODV 44 [0 ffffffff 16 800] ------- [22:255 -1:255 1 0] [0x1 1 [22 2] 4.000000] (HELLO)
r 0.008009129 _26_ RTR  --- 0 AODV 44 [0 ffffffff 12 800] ------- [18:255 -1:255 1 0] [0x1 1 [18 2] 4.000000] (HELLO)
r 0.008009194 _33_ RTR  --- 0 AODV 44 [0 ffffffff 12 800] ------- [18:255 -1:255 1 0] [0x1 1 [18 2] 4.000000] (HELLO)
r 0.008009219 _21_ RTR  --- 0 AODV 44 [0 ffffffff 12 800] ------- [18:255 -1:255 1 0] [0x1 1 [18 2] 4.000000] (HELLO)
r 0.008009255 _39_ RTR  --- 0 AODV 44 [0 ffffffff 12 800] ------- [18:255 -1:255 1 0] [0x1 1 [18 2] 4.000000] (HELLO)
r 0.008009312 _23_ RTR  --- 0 AODV 44 [0 ffffffff 12 800] ------- [18:255 -1:255 1 0] [0x1 1 [18 2] 4.000000] (HELLO)
r 0.008009422 _30_ RTR  --- 0 AODV 44 [0 ffffffff 12 800] ------- [18:255 -1:255 1 0] [0x1 1 [18 2] 4.000000] (HELLO)
r 0.008009471 _49_ RTR  --- 0 AODV 44 [0 ffffffff 12 800] ------- [18:255 -1:255 1 0] [0x1 1 [18 2] 4.000000] (HELLO)
r 0.008009486 _17_ RTR  --- 0 AODV 44 [0 ffffffff 12 800] ------- [18:255 -1:255 1 0] [0x1 1 [18 2] 4.000000] (HELLO)
r 0.008009518 _11_ RTR  --- 0 AODV 44 [0 ffffffff 12 800] ------- [18:255 -1:255 1 0] [0x1 1 [18 2] 4.000000] (HELLO)
r 0.008009546 _7_ RTR  --- 0 AODV 44 [0 ffffffff 12 800] ------- [18:255 -1:255 1 0] [0x1 1 [18 2] 4.000000] (HELLO)
r 0.008091051 _34_ RTR  --- 0 AODV 44 [0 ffffffff 2d 800] ------- [45:255 -1:255 1 0] [0x1 1 [45 2] 4.000000] (HELLO)
r 0.008091251 _2_ RTR  --- 0 AODV 44 [0 ffffffff 2d 800] ------- [45:255 -1:255 1 0] [0x1 1 [45 2] 4.000000] (HELLO)
r 0.008091339 _12_ RTR  --- 0 AODV 44 [0 ffffffff 2d 800] ------- [45:255 -1:255 1 0] [0x1 1 [45 2] 4.000000] (HELLO)
r 0.008091512 _5_ RTR  --- 0 AODV 44 [0 ffffffff 2d 800] ------- [45:255 -1:255 1 0] [0x1 1 [45 2] 4.000000] (HELLO)
r 0.008091541 _42_ RTR  --- 0 AODV 44 [0 ffffffff 2d 800] ------- [45:255 -1:255 1 0] [0x1 1 [45 2] 4.000000] (HELLO)
r 0.008091625 _32_ RTR  --- 0 AODV 44 [0 ffffffff 2d 800] ------- [45:255 -1:255 1 0] [0x1 1 [45 2] 4.000000] (HELLO)
r 0.008091715 _28_ RTR  --- 0 AODV 44 [0 ffffffff 2d 800] ------- [45:255 -1:255 1 0] [0x1 1 [45 2] 4.000000] (HELLO)
r 0.008151857 _43_ RTR  --- 0 AODV 44 [0 ffffffff 1 800] ------- [1:255 -1:255 1 0] [0x1 1 [1 2] 4.000000] (HELLO)
r 0.008151906 _15_ RTR  --- 0 AODV 44 [0 ffffffff 1 800] ------- [1:255 -1:255 1 0] [0x1 1 [1 2] 4.000000] (HELLO)
r 0.008152063 _19_ RTR  --- 0 AODV 44 [0 ffffffff 1 800] ------- [1:255 -1:255 1 0] [0x1 1 [1 2] 4.000000] (HELLO)
r 0.008152134 _14_ RTR  --- 0 AODV 44 [0 ffffffff 1 800] ------- [1:255 -1:255 1 0] [0x1 1 [1 2] 4.000000] (HELLO)
r 0.008152182 _29_ RTR  --- 0 AODV 44 [0 ffffffff 1 800] ------- [1:255 -1:255 1 0] [0x1 1 [1 2] 4.000000] (HELLO)
r 0.008152378 _22_ RTR  --- 0 AODV 44 [0 ffffffff 1 800] ------- [1:255 -1:255 1 0] [0x1 1 [1 2] 4.000000] (HELLO)
r 0.009015384 _26_ RTR  --- 0 AODV 44 [0 ffffffff 27 800] ------- [39:255 -1:255 1 0] [0x1 1 [39 2] 4.000000] (HELLO)
r 0.009015705 _18_ RTR  --- 0 AODV 44 [0 ffffffff 27 800] ------- [39:255 -1:255 1 0] [0x1 1 [39 2] 4.000000] (HELLO)
r 0.009016019 _33_ RTR  --- 0 AODV 44 [0 ffffffff 27 800] ------- [39:255 -1:255 1 0] [0x1 1 [39 2] 4.000000] (HELLO)
r 0.009038226 _1_ RTR  --- 0 AODV 44 [0 ffffffff f 800] ------- [15:255 -1:255 1 0] [0x1 1 [15 2] 4.000000] (HELLO)
r 0.009038358 _14_ RTR  --- 0 AODV 44 [0 ffffffff f 800] ------- [15:255 -1:255 1 0] [0x1 1 [15 2] 4.000000] (HELLO)
r 0.009038462 _43_ RTR  --- 0 AODV 44 [0 ffffffff f 800] ------- [15:255 -1:255 1 0] [0x1 1 [15 2] 4.000000] (HELLO)
r 0.009038465 _22_ RTR  --- 0 AODV 44 [0 ffffffff f 800] ------- [15:255 -1:255 1 0] [0x1 1 [15 2] 4.000000] (HELLO)
r 0.009038497 _19_ RTR  --- 0 AODV 44 [0 ffffffff f 800] ------- [15:255 -1:255 1 0] [0x1 1 [15 2] 4.000000] (HELLO)
r 0.009038544 _8_ RTR  --- 0 AODV 44 [0 ffffffff f 800] ------- [15:255 -1:255 1 0] [0x1 1 [15 2] 4.000000] (HELLO)
r 0.009038557 _20_ RTR  --- 0 AODV 44 [0 ffffffff f 800] ------- [15:255 -1:255 1 0] [0x1 1 [15 2] 4.000000] (HELLO)
r 0.009038591 _46_ RTR  --- 0 AODV 44 [0 ffffffff f 800] ------- [15:255 -1:255 1 0] [0x1 1 [15 2] 4.000000] (HELLO)
r 0.009038628 _29_ RTR  --- 0 AODV 44 [0 ffffffff f 800] ------- [15:255 -1:255 1 0] [0x1 1 [15 2] 4.000000] (HELLO)
r 0.009038670 _25_ RTR  --- 0 AODV 44 [0 ffffffff f 800] ------- [15:255 -1:255 1 0] [0x1 1 [15 2] 4.000000] (HELLO)
r 0.009117829 _5_ RTR  --- 0 AODV 44 [0 ffffffff 20 800] ------- [32:255 -1:255 1 0] [0x1 1 [32 2] 4.000000] (HELLO)
r 0.009117859 _28_ RTR  --- 0 AODV 44 [0 ffffffff 20 800] ------- [32:255 -1:255 1 0] [0x1 1 [32 2] 4.000000] (HELLO)
r 0.009118319 _45_ RTR  --- 0 AODV 44 [0 ffffffff 20 800] ------- [32:255 -1:255 1 0] [0x1 1 [32 2] 4.000000] (HELLO)
r 0.009118411 _34_ RTR  --- 0 AODV 44 [0 ffffffff 20 800] ------- [32:255 -1:255 1 0] [0x1 1 [32 2] 4.000000] (HELLO)
r 0.009924628 _29_ RTR  --- 0 AODV 44 [0 ffffffff 13 800] ------- [19:255 -1:255 1 0] [0x1 1 [19 2] 4.000000] (HELLO)
r 0.009924705 _8_ RTR  --- 0 AODV 44 [0 ffffffff 2e 800] ------- [46:255 -1:255 1 0] [0x1 1 [46 2] 4.000000] (HELLO)
r 0.009924727 _43_ RTR  --- 0 AODV 44 [0 ffffffff 2e 800] ------- [46:255 -1:255 1 0] [0x1 1 [46 2] 4.000000] (HELLO)
r 0.009924836 _14_ RTR  --- 0 AODV 44 [0 ffffffff 13 800] ------- [19:255 -1:255 1 0] [0x1 1 [19 2] 4.000000] (HELLO)
r 0.009925013 _27_ RTR  --- 0 AODV 44 [0 ffffffff 2e 800] ------- [46:255 -1:255 1 0] [0x1 1 [46 2] 4.000000] (HELLO)
r 0.010004530 _45_ RTR  --- 0 AODV 44 [0 ffffffff 22 800] ------- [34:255 -1:255 1 0] [0x1 1 [34 2] 4.000000] (HELLO)
r 0.010004613 _2_ RTR  --- 0 AODV 44 [0 ffffffff 22 800] ------- [34:255 -1:255 1 0] [0x1 1 [34 2] 4.000000] (HELLO)
r 0.010004766 _12_ RTR  --- 0 AODV 44 [0 ffffffff 22 800] ------- [34:255 -1:255 1 0] [0x1 1 [34 2] 4.000000] (HELLO)
r 0.010004901 _42_ RTR  --- 0 AODV 44 [0 ffffffff 22 800] ------- [34:255 -1:255 1 0] [0x1 1 [34 2] 4.000000] (HELLO)
r 0.010005063 _5_ RTR  --- 0 AODV 44 [0 ffffffff 22 800] ------- [34:255 -1:255 1 0] [0x1 1 [34 2] 4.000000] (HELLO)
r 0.010005134 _13_ RTR  --- 0 AODV 44 [0 ffffffff 22 800] ------- [34:255 -1:255 1 0] [0x1 1 [34 2] 4.000000] (HELLO)
r 0.010005197 _32_ RTR  --- 0 AODV 44 [0 ffffffff 22 800] ------- [34:255 -1:255 1 0] [0x1 1 [34 2] 4.000000] (HELLO)
r 0.010910814 _34_ RTR  --- 0 AODV 44 [0 ffffffff 2 800] ------- [2:255 -1:255 1 0] [0x1 1 [2 2] 4.000000] (HELLO)
r 0.010910903 _42_ RTR  --- 0 AODV 44 [0 ffffffff 2 800] ------- [2:255 -1:255 1 0] [0x1 1 [2 2] 4.000000] (HELLO)
r 0.010910933 _45_ RTR  --- 0 AODV 44 [0 ffffffff 2 800] ------- [2:255 -1:255 1 0] [0x1 1 [2 2] 4.000000] (HELLO)
r 0.010910999 _12_ RTR  --- 0 AODV 44 [0 ffffffff 2 800] ------- [2:255 -1:255 1 0] [0x1 1 [2 2] 4.000000] (HELLO)
r 0.010911149 _13_ RTR  --- 0 AODV 44 [0 ffffffff 2 800] ------- [2:255 -1:255 1 0] [0x1 1 [2 2] 4.000000] (HELLO)
r 0.010911387 _5_ RTR  --- 0 AODV 44 [0 ffffffff 2 800] ------- [2:255 -1:255 1 0] [0x1 1 [2 2] 4.000000] (HELLO)
r 0.011215956 _16_ RTR  --- 0 AODV 44 [0 ffffffff 2c 800] ------- [44:255 -1:255 1 0] [0x1 1 [44 2] 4.000000] (HELLO)
r 0.011216076 _7_ RTR  --- 0 AODV 44 [0 ffffffff 2c 800] ------- [44:255 -1:255 1 0] [0x1 1 [44 2] 4.000000] (HELLO)
r 0.011216082 _11_ RTR  --- 0 AODV 44 [0 ffffffff 2c 800] ------- [44:255 -1:255 1 0] [0x1 1 [44 2] 4.000000] (HELLO)
r 0.011216090 _17_ RTR  --- 0 AODV 44 [0 ffffffff 2c 800] ------- [44:255 -1:255 1 0] [0x1 1 [44 2] 4.000000] (HELLO)
r 0.011216366 _21_ RTR  --- 0 AODV 44 [0 ffffffff 2c 800] ------- [44:255 -1:255 1 0] [0x1 1 [44 2] 4.000000] (HELLO)
r 0.011216398 _27_ RTR  --- 0 AODV 44 [0 ffffffff 2c 800] ------- [44:255 -1:255 1 0] [0x1 1 [44 2] 4.000000] (HELLO)
r 0.011216427 _4_ RTR  --- 0 AODV 44 [0 ffffffff 2c 800] ------- [44:255 -1:255 1 0] [0x1 1 [44 2] 4.000000] (HELLO)
r 0.011216513 _33_ RTR  --- 0 AODV 44 [0 ffffffff 2c 800] ------- [44:255 -1:255 1 0] [0x1 1 [44 2] 4.000000] (HELLO)
r 0.011216534 _23_ RTR  --- 0 AODV 44 [0 ffffffff 2c 800] ------- [44:255 -1:255 1 0] [0x1 1 [44 2] 4.000000] (HELLO)
r 0.012097354 _34_ RTR  --- 0 AODV 44 [0 ffffffff c 800] ------- [12:255 -1:255 1 0] [0x1 1 [12 2] 4.000000] (HELLO)
r 0.012097386 _2_ RTR  --- 0 AODV 44 [0 ffffffff c 800] ------- [12:255 -1:255 1 0] [0x1 1 [12 2] 4.000000] (HELLO)
r 0.012097406 _45_ RTR  --- 0 AODV 44 [0 ffffffff c 800] ------- [12:255 -1:255 1 0] [0x1 1 [12 2] 4.000000] (HELLO)
r 0.012097537 _42_ RTR  --- 0 AODV 44 [0 ffffffff c 800] ------- [12:255 -1:255 1 0] [0x1 1 [12 2] 4.000000] (HELLO)
r 0.012097648 _13_ RTR  --- 0 AODV 44 [0 ffffffff c 800] ------- [12:255 -1:255 1 0] [0x1 1 [12 2] 4.000000] (HELLO)
r 0.012097663 _40_ RTR  --- 0 AODV 44 [0 ffffffff c 800] ------- [12:255 -1:255 1 0] [0x1 1 [12 2] 4.000000] (HELLO)
r 0.012097678 _41_ RTR  --- 0 AODV 44 [0 ffffffff c 800] ------- [12:255 -1:255 1 0] [0x1 1 [12 2] 4.000000] (HELLO)
r 0.012097695 _38_ RTR  --- 0 AODV 44 [0 ffffffff c 800] ------- [12:255 -1:255 1 0] [0x1 1 [12 2] 4.000000] (HELLO)
r 0.012097792 _48_ RTR  --- 0 AODV 44 [0 ffffffff c 800] ------- [12:255 -1:255 1 0] [0x1 1 [12 2] 4.000000] (HELLO)
r 0.012342160 _7_ RTR  --- 0 AODV 44 [0 ffffffff 11 800] ------- [17:255 -1:255 1 0] [0x1 1 [17 2] 4.000000] (HELLO)
r 0.012342344 _16_ RTR  --- 0 AODV 44 [0 ffffffff 11 800] ------- [17:255 -1:255 1 0] [0x1 1 [17 2] 4.000000] (HELLO)
r 0.012342447 _11_ RTR  --- 0 AODV 44 [0 ffffffff 11 800] ------- [17:255 -1:255 1 0] [0x1 1 [17 2] 4.000000] (HELLO)
r 0.012342454 _44_ RTR  --- 0 AODV 44 [0 ffffffff 11 800] ------- [17:255 -1:255 1 0] [0x1 1 [17 2] 4.000000] (HELLO)
r 0.012342540 _21_ RTR  --- 0 AODV 44 [0 ffffffff 11 800] ------- [17:255 -1:255 1 0] [0x1 1 [17 2] 4.000000] (HELLO)
r 0.012342772 _18_ RTR  --- 0 AODV 44 [0 ffffffff 11 800] ------- [17:255 -1:255 1 0] [0x1 1 [17 2] 4.000000] (HELLO)
r 0.012342890 _30_ RTR  --- 0 AODV 44 [0 ffffffff 11 800] ------- [17:255 -1:255 1 0] [0x1 1 [17 2] 4.000000] (HELLO)
r 0.013388158 _36_ RTR  --- 0 AODV 44 [0 ffffffff 9 800] ------- [9:255 -1:255 1 0] [0x1 1 [9 2] 4.000000] (HELLO)
r 0.013388184 _13_ RTR  --- 0 AODV 44 [0 ffffffff 9 800] ------- [9:255 -1:255 1 0] [0x1 1 [9 2] 4.000000] (HELLO)
r 0.013388298 _6_ RTR  --- 0 AODV 44 [0 ffffffff 9 800] ------- [9:255 -1:255 1 0] [0x1 1 [9 2] 4.000000] (HELLO)
r 0.013388325 _37_ RTR  --- 0 AODV 44 [0 ffffffff 9 800] ------- [9:255 -1:255 1 0] [0x1 1 [9 2] 4.000000] (HELLO)
r 0.013388386 _3_ RTR  --- 0 AODV 44 [0 ffffffff 9 800] ------- [9:255 -1:255 1 0] [0x1 1 [9 2] 4.000000] (HELLO)
r 0.013388409 _35_ RTR  --- 0 AODV 44 [0 ffffffff 9 800] ------- [9:255 -1:255 1 0] [0x1 1 [9 2] 4.000000] (HELLO)
r 0.013388455 _42_ RTR  --- 0 AODV 44 [0 ffffffff 9 800] ------- [9:255 -1:255 1 0] [0x1 1 [9 2] 4.000000] (HELLO)
r 0.013388622 _38_ RTR  --- 0 AODV 44 [0 ffffffff 9 800] ------- [9:255 -1:255 1 0] [0x1 1 [9 2] 4.000000] (HELLO)
r 0.013593308 _46_ RTR  --- 0 AODV 44 [0 ffffffff 8 800] ------- [8:255 -1:255 1 0] [0x1 1 [8 2] 4.000000] (HELLO)
r 0.013593354 _43_ RTR  --- 0 AODV 44 [0 ffffffff 8 800] ------- [8:255 -1:255 1 0] [0x1 1 [8 2] 4.000000] (HELLO)
r 0.013593513 _1_ RTR  --- 0 AODV 44 [0 ffffffff 8 800] ------- [8:255 -1:255 1 0] [0x1 1 [8 2] 4.000000] (HELLO)
r 0.013593542 _25_ RTR  --- 0 AODV 44 [0 ffffffff 8 800] ------- [8:255 -1:255 1 0] [0x1 1 [8 2] 4.000000] (HELLO)
r 0.013593647 _27_ RTR  --- 0 AODV 44 [0 ffffffff 8 800] ------- [8:255 -1:255 1 0] [0x1 1 [8 2] 4.000000] (HELLO)
r 0.013593708 _19_ RTR  --- 0 AODV 44 [0 ffffffff 8 800] ------- [8:255 -1:255 1 0] [0x1 1 [8 2] 4.000000] (HELLO)
r 0.013593774 _29_ RTR  --- 0 AODV 44 [0 ffffffff 8 800] ------- [8:255 -1:255 1 0] [0x1 1 [8 2] 4.000000] (HELLO)
r 0.013593807 _20_ RTR  --- 0 AODV 44 [0 ffffffff 8 800] ------- [8:255 -1:255 1 0] [0x1 1 [8 2] 4.000000] (HELLO)
r 0.013593831 _15_ RTR  --- 0 AODV 44 [0 ffffffff 8 800] ------- [8:255 -1:255 1 0] [0x1 1 [8 2] 4.000000] (HELLO)
r 0.013593937 _14_ RTR  --- 0 AODV 44 [0 ffffffff 8 800] ------- [8:255 -1:255 1 0] [0x1 1 [8 2] 4.000000] (HELLO)
r 0.014500069 _46_ RTR  --- 0 AODV 44 [0 ffffffff 1b 800] ------- [27:255 -1:255 1 0] [0x1 1 [27 2] 4.000000] (HELLO)
r 0.014500100 _8_ RTR  --- 0 AODV 44 [0 ffffffff 1b 800] ------- [27:255 -1:255 1 0] [0x1 1 [27 2] 4.000000] (HELLO)
r 0.014500125 _16_ RTR  --- 0 AODV 44 [0 ffffffff 1b 800] ------- [27:255 -1:255 1 0] [0x1 1 [27 2] 4.000000] (HELLO)
r 0.014500167 _25_ RTR  --- 0 AODV 44 [0 ffffffff 1b 800] ------- [27:255 -1:255 1 0] [0x1 1 [27 2] 4.000000] (HELLO)
r 0.014500205 _43_ RTR  --- 0 AODV 44 [0 ffffffff 1b 800] ------- [27:255 -1:255 1 0] [0x1 1 [27 2] 4.000000] (HELLO)
r 0.014500228 _7_ RTR  --- 0 AODV 44 [0 ffffffff 1b 800] ------- [27:255 -1:255 1 0] [0x1 1 [27 2] 4.000000] (HELLO)
r 0.014500298 _17_ RTR  --- 0 AODV 44 [0 ffffffff 1b 800] ------- [27:255 -1:255 1 0] [0x1 1 [27 2] 4.000000] (HELLO)
r 0.014500319 _44_ RTR  --- 0 AODV 44 [0 ffffffff 1b 800] ------- [27:255 -1:255 1 0] [0x1 1 [27 2] 4.000000] (HELLO)
r 0.014500399 _4_ RTR  --- 0 AODV 44 [0 ffffffff 1b 800] ------- [27:255 -1:255 1 0] [0x1 1 [27 2] 4.000000] (HELLO)
r 0.014500419 _1_ RTR  --- 0 AODV 44 [0 ffffffff 1b 800] ------- [27:255 -1:255 1 0] [0x1 1 [27 2] 4.000000] (HELLO)
r 0.014500467 _29_ RTR  --- 0 AODV 44 [0 ffffffff 1b 800] ------- [27:255 -1:255 1 0] [0x1 1 [27 2] 4.000000] (HELLO)