n -t * -s 0  -x 370.93193727867799 -y 189.225017758739 -Z 0 -z 30  -v circle -c black
n -t * -s 1  -x 459.46024953567701 -y 21.524949459636002 -Z 0 -z 30  -v circle -c black
n -t * -s 2  -x 335.25609754334897 -y 18.134448274962001 -Z 0 -z 30  -v circle -c black
n -t * -s 3  -x 448.93588181088302 -y 59.375425183700997 -Z 0 -z 30  -v circle -c black
n -t * -s 4  -x 227.81913084592199 -y 307.15730038674502 -Z 0 -z 30  -v circle -c black
n -t * -s 5  -x 24.597764042283998 -y 246.663085605465 -Z 0 -z 30  -v circle -c black
n -t * -s 6  -x 244.47582158049801 -y 35.469670635111001 -Z 0 -z 30  -v circle -c black
n -t * -s 7  -x 289.006786913008 -y 448.614461420059 -Z 0 -z 30  -v circle -c black
n -t * -s 8  -x 412.74331075852001 -y 267.12245844804499 -Z 0 -z 30  -v circle -c black
n -t * -s 9  -x 131.122667638938 -y 455.43505117075802 -Z 0 -z 30  -v circle -c black
V -t * -v 1.0a5 -a 0
W -t * -x 500 -y 500
A -t * -n 1 -p 0 -o 0x7fffffff -c 30 -a 1
A -t * -h 1 -m 1073741823 -s 0
+ -t 1.000000000 -s 9 -d -1 -p tcp -e 40 -c 2 -a 0 -i 0 -k AGT 
- -t 1.000000000 -s 9 -d -1 -p tcp -e 40 -c 2 -a 0 -i 0 -k AGT
h -t 1.000000000 -s 9 -d -1 -p tcp -e 40 -c 2 -a 0 -i 0 -k AGT
+ -t 1.000000000 -s 9 -d -1 -p AODV -e 48 -c 2 -a 0 -i 0 -k RTR 
- -t 1.000000000 -s 9 -d -1 -p AODV -e 48 -c 2 -a 0 -i 0 -k RTR
h -t 1.000000000 -s 9 -d -1 -p AODV -e 48 -c 2 -a 0 -i 0 -k RTR
r -t 1.000988527 -s 7 -d -1 -p AODV -e 48 -c 2 -a 0 -i 0 -k RTR
r -t 1.000988590 -s 4 -d -1 -p AODV -e 48 -c 2 -a 0 -i 0 -k RTR
r -t 1.000988781 -s 5 -d -1 -p AODV -e 48 -c 2 -a 0 -i 0 -k RTR
+ -t 1.001869753 -s 7 -d -1 -p AODV -e 48 -c 2 -a 0 -i 0 -k RTR 
- -t 1.001869753 -s 7 -d -1 -p AODV -e 48 -c 2 -a 0 -i 0 -k RTR
h -t 1.001869753 -s 7 -d -1 -p AODV -e 48 -c 2 -a 0 -i 0 -k RTR
r -t 1.002978267 -s 4 -d -1 -p AODV -e 48 -c 2 -a 0 -i 0 -k RTR
r -t 1.002978280 -s 9 -d -1 -p AODV -e 48 -c 2 -a 0 -i 0 -k RTR
r -t 1.002978486 -s 8 -d -1 -p AODV -e 48 -c 2 -a 0 -i 0 -k RTR
+ -t 1.005324503 -s 8 -d -1 -p AODV -e 48 -c 2 -a 0 -i 0 -k RTR 
- -t 1.005324503 -s 8 -d -1 -p AODV -e 48 -c 2 -a 0 -i 0 -k RTR
h -t 1.005324503 -s 8 -d -1 -p AODV -e 48 -c 2 -a 0 -i 0 -k RTR
+ -t 1.005400324 -s 4 -d -1 -p AODV -e 48 -c 2 -a 0 -i 0 -k RTR 
- -t 1.005400324 -s 4 -d -1 -p AODV -e 48 -c 2 -a 0 -i 0 -k RTR
h -t 1.005400324 -s 4 -d -1 -p AODV -e 48 -c 2 -a 0 -i 0 -k RTR
r -t 1.006608838 -s 7 -d -1 -p AODV -e 48 -c 2 -a 0 -i 0 -k RTR
r -t 1.006608914 -s 9 -d -1 -p AODV -e 48 -c 2 -a 0 -i 0 -k RTR
r -t 1.006608942 -s 0 -d -1 -p AODV -e 48 -c 2 -a 0 -i 0 -k RTR
r -t 1.006608955 -s 8 -d -1 -p AODV -e 48 -c 2 -a 0 -i 0 -k RTR
r -t 1.006609031 -s 5 -d -1 -p AODV -e 48 -c 2 -a 0 -i 0 -k RTR
r -t 1.007547249 -s 0 -d -1 -p AODV -e 48 -c 2 -a 0 -i 0 -k RTR
r -t 1.007547585 -s 4 -d -1 -p AODV -e 48 -c 2 -a 0 -i 0 -k RTR
r -t 1.007547658 -s 3 -d -1 -p AODV -e 48 -c 2 -a 0 -i 0 -k RTR
r -t 1.007547687 -s 7 -d -1 -p AODV -e 48 -c 2 -a 0 -i 0 -k RTR
r -t 1.007547788 -s 1 -d -1 -p AODV -e 48 -c 2 -a 0 -i 0 -k RTR
+ -t 1.007547788 -s 1 -d 8 -p AODV -e 44 -c 2 -a 0 -i 0 -k RTR 
- -t 1.007547788 -s 1 -d 8 -p AODV -e 44 -c 2 -a 0 -i 0 -k RTR
h -t 1.007547788 -s 1 -d 8 -p AODV -e 44 -c 2 -a 0 -i 0 -k RTR
+ -t 1.008250396 -s 0 -d -1 -p AODV -e 48 -c 2 -a 0 -i 0 -k RTR 
- -t 1.008250396 -s 0 -d -1 -p AODV -e 48 -c 2 -a 0 -i 0 -k RTR
h -t 1.008250396 -s 0 -d -1 -p AODV -e 48 -c 2 -a 0 -i 0 -k RTR
+ -t 1.008980336 -s 5 -d -1 -p AODV -e 48 -c 2 -a 0 -i 0 -k RTR 
- -t 1.008980336 -s 5 -d -1 -p AODV -e 48 -c 2 -a 0 -i 0 -k RTR
h -t 1.008980336 -s 5 -d -1 -p AODV -e 48 -c 2 -a 0 -i 0 -k RTR
r -t 1.011546048 -s 8 -d -1 -p AODV -e 48 -c 2 -a 0 -i 0 -k RTR
r -t 1.011546258 -s 3 -d -1 -p AODV -e 48 -c 2 -a 0 -i 0 -k RTR
r -t 1.011546336 -s 2 -d -1 -p AODV -e 48 -c 2 -a 0 -i 0 -k RTR
r -t 1.011546372 -s 4 -d -1 -p AODV -e 48 -c 2 -a 0 -i 0 -k RTR
r -t 1.011546385 -s 1 -d -1 -p AODV -e 48 -c 2 -a 0 -i 0 -k RTR
r -t 1.011546417 -s 6 -d -1 -p AODV -e 48 -c 2 -a 0 -i 0 -k RTR
+ -t 1.013350886 -s 8 -d 7 -p AODV -e 44 -c 2 -a 0 -i 0 -k RTR 
- -t 1.013350886 -s 8 -d 7 -p AODV -e 44 -c 2 -a 0 -i 0 -k RTR
h -t 1.013350886 -s 8 -d 7 -p AODV -e 44 -c 2 -a 0 -i 0 -k RTR
+ -t 1.013948334 -s 3 -d -1 -p AODV -e 48 -c 2 -a 0 -i 0 -k RTR 
- -t 1.013948334 -s 3 -d -1 -p AODV -e 48 -c 2 -a 0 -i 0 -k RTR
h -t 1.013948334 -s 3 -d -1 -p AODV -e 48 -c 2 -a 0 -i 0 -k RTR
+ -t 1.014127215 -s 2 -d -1 -p AODV -e 48 -c 2 -a 0 -i 0 -k RTR 
- -t 1.014127215 -s 2 -d -1 -p AODV -e 48 -c 2 -a 0 -i 0 -k RTR
h -t 1.014127215 -s 2 -d -1 -p AODV -e 48 -c 2 -a 0 -i 0 -k RTR
+ -t 1.015633274 -s 6 -d -1 -p AODV -e 48 -c 2 -a 0 -i 0 -k RTR 
- -t 1.015633274 -s 6 -d -1 -p AODV -e 48 -c 2 -a 0 -i 0 -k RTR
h -t 1.015633274 -s 6 -d -1 -p AODV -e 48 -c 2 -a 0 -i 0 -k RTR
r -t 1.015721719 -s 1 -d -1 -p AODV -e 48 -c 2 -a 0 -i 0 -k RTR
r -t 1.015721992 -s 2 -d -1 -p AODV -e 48 -c 2 -a 0 -i 0 -k RTR
r -t 1.015722093 -s 0 -d -1 -p AODV -e 48 -c 2 -a 0 -i 0 -k RTR
r -t 1.015722275 -s 6 -d -1 -p AODV -e 48 -c 2 -a 0 -i 0 -k RTR
r -t 1.015722291 -s 8 -d -1 -p AODV -e 48 -c 2 -a 0 -i 0 -k RTR
r -t 1.016980583 -s 2 -d -1 -p AODV -e 48 -c 2 -a 0 -i 0 -k RTR
r -t 1.016980938 -s 0 -d -1 -p AODV -e 48 -c 2 -a 0 -i 0 -k RTR
r -t 1.016980961 -s 3 -d -1 -p AODV -e 48 -c 2 -a 0 -i 0 -k RTR
r -t 1.016980993 -s 1 -d -1 -p AODV -e 48 -c 2 -a 0 -i 0 -k RTR
r -t 1.018098891 -s 6 -d -1 -p AODV -e 48 -c 2 -a 0 -i 0 -k RTR
r -t 1.018098986 -s 3 -d -1 -p AODV -e 48 -c 2 -a 0 -i 0 -k RTR
r -t 1.018098997 -s 1 -d -1 -p AODV -e 48 -c 2 -a 0 -i 0 -k RTR
r -t 1.018099165 -s 0 -d -1 -p AODV -e 48 -c 2 -a 0 -i 0 -k RTR
+ -t 1.022258419 -s 7 -d 9 -p AODV -e 44 -c 2 -a 0 -i 0 -k RTR 
- -t 1.022258419 -s 7 -d 9 -p AODV -e 44 -c 2 -a 0 -i 0 -k RTR
h -t 1.022258419 -s 7 -d 9 -p AODV -e 44 -c 2 -a 0 -i 0 -k RTR
r -t 1.024954235 -s 4 -d -1 -p AODV -e 48 -c 2 -a 0 -i 0 -k RTR
r -t 1.024954309 -s 9 -d -1 -p AODV -e 48 -c 2 -a 0 -i 0 -k RTR
+ -t 1.028487470 -s 9 -d 7 -p tcp -e 40 -c 2 -a 0 -i 0 -k RTR 
- -t 1.028487470 -s 9 -d 7 -p tcp -e 40 -c 2 -a 0 -i 0 -k RTR
h -t 1.028487470 -s 9 -d 7 -p tcp -e 40 -c 2 -a 0 -i 0 -k RTR
+ -t 1.030713050 -s 7 -d 8 -p tcp -e 40 -c 2 -a 0 -i 0 -k RTR 
- -t 1.030713050 -s 7 -d 8 -p tcp -e 40 -c 2 -a 0 -i 0 -k RTR
h -t 1.030713050 -s 7 -d 8 -p tcp -e 40 -c 2 -a 0 -i 0 -k RTR
+ -t 1.032659247 -s 8 -d 1 -p tcp -e 40 -c 2 -a 0 -i 0 -k RTR 
- -t 1.032659247 -s 8 -d 1 -p tcp -e 40 -c 2 -a 0 -i 0 -k RTR
h -t 1.032659247 -s 8 -d 1 -p tcp -e 40 -c 2 -a 0 -i 0 -k RTR
r -t 1.034985747 -s 1 -d 1 -p tcp -e 40 -c 2 -a 0 -i 0 -k AGT
+ -t 1.034985747 -s 1 -d -1 -p ack -e 40 -c 2 -a 0 -i 1 -k AGT 
- -t 1.034985747 -s 1 -d -1 -p ack -e 40 -c 2 -a 0 -i 1 -k AGT
h -t 1.034985747 -s 1 -d -1 -p ack -e 40 -c 2 -a 0 -i 1 -k AGT
+ -t 1.034985747 -s 1 -d 8 -p ack -e 40 -c 2 -a 0 -i 1 -k RTR 
- -t 1.034985747 -s 1 -d 8 -p ack -e 40 -c 2 -a 0 -i 1 -k RTR
h -t 1.034985747 -s 1 -d 8 -p ack -e 40 -c 2 -a 0 -i 1 -k RTR
+ -t 1.036992247 -s 8 -d 7 -p ack -e 40 -c 2 -a 0 -i 1 -k RTR 
- -t 1.036992247 -s 8 -d 7 -p ack -e 40 -c 2 -a 0 -i 1 -k RTR
h -t 1.036992247 -s 8 -d 7 -p ack -e 40 -c 2 -a 0 -i 1 -k RTR
+ -t 1.038938443 -s 7 -d 9 -p ack -e 40 -c 2 -a 0 -i 1 -k RTR 
- -t 1.038938443 -s 7 -d 9 -p ack -e 40 -c 2 -a 0 -i 1 -k RTR
h -t 1.038938443 -s 7 -d 9 -p ack -e 40 -c 2 -a 0 -i 1 -k RTR
r -t 1.040764024 -s 9 -d 9 -p ack -e 40 -c 2 -a 0 -i 1 -k AGT
+ -t 1.040764024 -s 9 -d -1 -p tcp -e 1040 -c 2 -a 0 -i 2 -k AGT 
- -t 1.040764024 -s 9 -d -1 -p tcp -e 1040 -c 2 -a 0 -i 2 -k AGT
h -t 1.040764024 -s 9 -d -1 -p tcp -e 1040 -c 2 -a 0 -i 2 -k AGT
+ -t 1.040764024 -s 9 -d -1 -p tcp -e 1040 -c 2 -a 0 -i 3 -k AGT 
- -t 1.040764024 -s 9 -d -1 -p tcp -e 1040 -c 2 -a 0 -i 3 -k AGT
h -t 1.040764024 -s 9 -d -1 -p tcp -e 1040 -c 2 -a 0 -i 3 -k AGT
+ -t 1.040764024 -s 9 -d 7 -p tcp -e 1040 -c 2 -a 0 -i 2 -k RTR 
- -t 1.040764024 -s 9 -d 7 -p tcp -e 1040 -c 2 -a 0 -i 2 -k RTR
h -t 1.040764024 -s 9 -d 7 -p tcp -e 1040 -c 2 -a 0 -i 2 -k RTR
+ -t 1.040764024 -s 9 -d 7 -p tcp -e 1040 -c 2 -a 0 -i 3 -k RTR 
- -t 1.040764024 -s 9 -d 7 -p tcp -e 1040 -c 2 -a 0 -i 3 -k RTR
h -t 1.040764024 -s 9 -d 7 -p tcp -e 1040 -c 2 -a 0 -i 3 -k RTR
+ -t 1.050709604 -s 7 -d 8 -p tcp -e 1040 -c 2 -a 0 -i 2 -k RTR 
- -t 1.050709604 -s 7 -d 8 -p tcp -e 1040 -c 2 -a 0 -i 2 -k RTR
h -t 1.050709604 -s 7 -d 8 -p tcp -e 1040 -c 2 -a 0 -i 2 -k RTR
+ -t 1.060695711 -s 7 -d 8 -p tcp -e 1040 -c 2 -a 0 -i 3 -k RTR 
- -t 1.060695711 -s 7 -d 8 -p tcp -e 1040 -c 2 -a 0 -i 3 -k RTR
h -t 1.060695711 -s 7 -d 8 -p tcp -e 1040 -c 2 -a 0 -i 3 -k RTR
+ -t 1.070581908 -s 8 -d 1 -p tcp -e 1040 -c 2 -a 0 -i 2 -k RTR 
- -t 1.070581908 -s 8 -d 1 -p tcp -e 1040 -c 2 -a 0 -i 2 -k RTR
h -t 1.070581908 -s 8 -d 1 -p tcp -e 1040 -c 2 -a 0 -i 2 -k RTR
+ -t 1.080488837 -s 8 -d 1 -p tcp -e 1040 -c 2 -a 0 -i 3 -k RTR 
- -t 1.080488837 -s 8 -d 1 -p tcp -e 1040 -c 2 -a 0 -i 3 -k RTR
h -t 1.080488837 -s 8 -d 1 -p tcp -e 1040 -c 2 -a 0 -i 3 -k RTR
r -t 1.090355337 -s 1 -d 1 -p tcp -e 1040 -c 2 -a 0 -i 2 -k AGT
+ -t 1.090355337 -s 1 -d -1 -p ack -e 40 -c 2 -a 0 -i 4 -k AGT 
- -t 1.090355337 -s 1 -d -1 -p ack -e 40 -c 2 -a 0 -i 4 -k AGT
h -t 1.090355337 -s 1 -d -1 -p ack -e 40 -c 2 -a 0 -i 4 -k AGT
+ -t 1.090355337 -s 1 -d 8 -p ack -e 40 -c 2 -a 0 -i 4 -k RTR 
- -t 1.090355337 -s 1 -d 8 -p ack -e 40 -c 2 -a 0 -i 4 -k RTR
h -t 1.090355337 -s 1 -d 8 -p ack -e 40 -c 2 -a 0 -i 4 -k RTR
r -t 1.100182670 -s 1 -d 1 -p tcp -e 1040 -c 2 -a 0 -i 3 -k AGT
+ -t 1.100182670 -s 1 -d -1 -p ack -e 40 -c 2 -a 0 -i 5 -k AGT 
- -t 1.100182670 -s 1 -d -1 -p ack -e 40 -c 2 -a 0 -i 5 -k AGT
h -t 1.100182670 -s 1 -d -1 -p ack -e 40 -c 2 -a 0 -i 5 -k AGT
+ -t 1.100182670 -s 1 -d 8 -p ack -e 40 -c 2 -a 0 -i 5 -k RTR 
- -t 1.100182670 -s 1 -d 8 -p ack -e 40 -c 2 -a 0 -i 5 -k RTR
h -t 1.100182670 -s 1 -d 8 -p ack -e 40 -c 2 -a 0 -i 5 -k RTR
+ -t 1.102369170 -s 8 -d 7 -p ack -e 40 -c 2 -a 0 -i 4 -k RTR 
- -t 1.102369170 -s 8 -d 7 -p ack -e 40 -c 2 -a 0 -i 4 -k RTR
h -t 1.102369170 -s 8 -d 7 -p ack -e 40 -c 2 -a 0 -i 4 -k RTR
+ -t 1.104476503 -s 8 -d 7 -p ack -e 40 -c 2 -a 0 -i 5 -k RTR 
- -t 1.104476503 -s 8 -d 7 -p ack -e 40 -c 2 -a 0 -i 5 -k RTR
h -t 1.104476503 -s 8 -d 7 -p ack -e 40 -c 2 -a 0 -i 5 -k RTR
+ -t 1.106322700 -s 7 -d 9 -p ack -e 40 -c 2 -a 0 -i 4 -k RTR 
- -t 1.106322700 -s 7 -d 9 -p ack -e 40 -c 2 -a 0 -i 4 -k RTR
h -t 1.106322700 -s 7 -d 9 -p ack -e 40 -c 2 -a 0 -i 4 -k RTR
r -t 1.108208280 -s 9 -d 9 -p ack -e 40 -c 2 -a 0 -i 4 -k AGT
+ -t 1.108208280 -s 9 -d -1 -p tcp -e 1040 -c 2 -a 0 -i 6 -k AGT 
- -t 1.108208280 -s 9 -d -1 -p tcp -e 1040 -c 2 -a 0 -i 6 -k AGT
h -t 1.108208280 -s 9 -d -1 -p tcp -e 1040 -c 2 -a 0 -i 6 -k AGT
+ -t 1.108208280 -s 9 -d -1 -p tcp -e 1040 -c 2 -a 0 -i 7 -k AGT 
- -t 1.108208280 -s 9 -d -1 -p tcp -e 1040 -c 2 -a 0 -i 7 -k AGT
h -t 1.108208280 -s 9 -d -1 -p tcp -e 1040 -c 2 -a 0 -i 7 -k AGT
+ -t 1.108208280 -s 9 -d 7 -p tcp -e 1040 -c 2 -a 0 -i 6 -k RTR 
- -t 1.108208280 -s 9 -d 7 -p tcp -e 1040 -c 2 -a 0 -i 6 -k RTR
h -t 1.108208280 -s 9 -d 7 -p tcp -e 1040 -c 2 -a 0 -i 6 -k RTR
+ -t 1.108208280 -s 9 -d 7 -p tcp -e 1040 -c 2 -a 0 -i 7 -k RTR 
- -t 1.108208280 -s 9 -d 7 -p tcp -e 1040 -c 2 -a 0 -i 7 -k RTR
h -t 1.108208280 -s 9 -d 7 -p tcp -e 1040 -c 2 -a 0 -i 7 -k RTR
+ -t 1.118213861 -s 7 -d 8 -p tcp -e 1040 -c 2 -a 0 -i 6 -k RTR 
- -t 1.118213861 -s 7 -d 8 -p tcp -e 1040 -c 2 -a 0 -i 6 -k RTR
h -t 1.118213861 -s 7 -d 8 -p tcp -e 1040 -c 2 -a 0 -i 6 -k RTR
+ -t 1.128120057 -s 8 -d 1 -p tcp -e 1040 -c 2 -a 0 -i 6 -k RTR 
- -t 1.128120057 -s 8 -d 1 -p tcp -e 1040 -c 2 -a 0 -i 6 -k RTR
h -t 1.128120057 -s 8 -d 1 -p tcp -e 1040 -c 2 -a 0 -i 6 -k RTR
+ -t 1.130366254 -s 7 -d 9 -p ack -e 40 -c 2 -a 0 -i 5 -k RTR 
- -t 1.130366254 -s 7 -d 9 -p ack -e 40 -c 2 -a 0 -i 5 -k RTR
h -t 1.130366254 -s 7 -d 9 -p ack -e 40 -c 2 -a 0 -i 5 -k RTR
r -t 1.132231834 -s 9 -d 9 -p ack -e 40 -c 2 -a 0 -i 5 -k AGT
+ -t 1.132231834 -s 9 -d -1 -p tcp -e 1040 -c 2 -a 0 -i 8 -k AGT 
- -t 1.132231834 -s 9 -d -1 -p tcp -e 1040 -c 2 -a 0 -i 8 -k AGT
h -t 1.132231834 -s 9 -d -1 -p tcp -e 1040 -c 2 -a 0 -i 8 -k AGT
+ -t 1.132231834 -s 9 -d -1 -p tcp -e 1040 -c 2 -a 0 -i 9 -k AGT 
- -t 1.132231834 -s 9 -d -1 -p tcp -e 1040 -c 2 -a 0 -i 9 -k AGT
h -t 1.132231834 -s 9 -d -1 -p tcp -e 1040 -c 2 -a 0 -i 9 -k AGT
+ -t 1.132231834 -s 9 -d 7 -p tcp -e 1040 -c 2 -a 0 -i 8 -k RTR 
- -t 1.132231834 -s 9 -d 7 -p tcp -e 1040 -c 2 -a 0 -i 8 -k RTR
h -t 1.132231834 -s 9 -d 7 -p tcp -e 1040 -c 2 -a 0 -i 8 -k RTR
+ -t 1.132231834 -s 9 -d 7 -p tcp -e 1040 -c 2 -a 0 -i 9 -k RTR 
- -t 1.132231834 -s 9 -d 7 -p tcp -e 1040 -c 2 -a 0 -i 9 -k RTR
h -t 1.132231834 -s 9 -d 7 -p tcp -e 1040 -c 2 -a 0 -i 9 -k RTR
+ -t 1.142077414 -s 7 -d 8 -p tcp -e 1040 -c 2 -a 0 -i 7 -k RTR 
- -t 1.142077414 -s 7 -d 8 -p tcp -e 1040 -c 2 -a 0 -i 7 -k RTR
h -t 1.142077414 -s 7 -d 8 -p tcp -e 1040 -c 2 -a 0 -i 7 -k RTR
+ -t 1.152023611 -s 8 -d 1 -p tcp -e 1040 -c 2 -a 0 -i 7 -k RTR 
- -t 1.152023611 -s 8 -d 1 -p tcp -e 1040 -c 2 -a 0 -i 7 -k RTR
h -t 1.152023611 -s 8 -d 1 -p tcp -e 1040 -c 2 -a 0 -i 7 -k RTR
r -t 1.162230111 -s 1 -d 1 -p tcp -e 1040 -c 2 -a 0 -i 6 -k AGT
+ -t 1.162230111 -s 1 -d -1 -p ack -e 40 -c 2 -a 0 -i 10 -k AGT 
- -t 1.162230111 -s 1 -d -1 -p ack -e 40 -c 2 -a 0 -i 10 -k AGT
h -t 1.162230111 -s 1 -d -1 -p ack -e 40 -c 2 -a 0 -i 10 -k AGT
+ -t 1.162230111 -s 1 -d 8 -p ack -e 40 -c 2 -a 0 -i 10 -k RTR 
- -t 1.162230111 -s 1 -d 8 -p ack -e 40 -c 2 -a 0 -i 10 -k RTR
h -t 1.162230111 -s 1 -d 8 -p ack -e 40 -c 2 -a 0 -i 10 -k RTR
+ -t 1.164136611 -s 8 -d 7 -p ack -e 40 -c 2 -a 0 -i 10 -k RTR 
- -t 1.164136611 -s 8 -d 7 -p ack -e 40 -c 2 -a 0 -i 10 -k RTR
h -t 1.164136611 -s 8 -d 7 -p ack -e 40 -c 2 -a 0 -i 10 -k RTR
r -t 1.174163111 -s 1 -d 1 -p tcp -e 1040 -c 2 -a 0 -i 7 -k AGT
+ -t 1.174163111 -s 1 -d -1 -p ack -e 40 -c 2 -a 0 -i 11 -k AGT 
- -t 1.174163111 -s 1 -d -1 -p ack -e 40 -c 2 -a 0 -i 11 -k AGT
h -t 1.174163111 -s 1 -d -1 -p ack -e 40 -c 2 -a 0 -i 11 -k AGT
+ -t 1.174163111 -s 1 -d 8 -p ack -e 40 -c 2 -a 0 -i 11 -k RTR 
- -t 1.174163111 -s 1 -d 8 -p ack -e 40 -c 2 -a 0 -i 11 -k RTR
h -t 1.174163111 -s 1 -d 8 -p ack -e 40 -c 2 -a 0 -i 11 -k RTR
+ -t 1.176049611 -s 8 -d 7 -p ack -e 40 -c 2 -a 0 -i 11 -k RTR 
- -t 1.176049611 -s 8 -d 7 -p ack -e 40 -c 2 -a 0 -i 11 -k RTR
h -t 1.176049611 -s 8 -d 7 -p ack -e 40 -c 2 -a 0 -i 11 -k RTR
+ -t 1.178175808 -s 7 -d 9 -p ack -e 40 -c 2 -a 0 -i 10 -k RTR 
- -t 1.178175808 -s 7 -d 9 -p ack -e 40 -c 2 -a 0 -i 10 -k RTR
h -t 1.178175808 -s 7 -d 9 -p ack -e 40 -c 2 -a 0 -i 10 -k RTR
+ -t 1.180062736 -s 7 -d 9 -p ack -e 40 -c 2 -a 0 -i 11 -k RTR 
- -t 1.180062736 -s 7 -d 9 -p ack -e 40 -c 2 -a 0 -i 11 -k RTR
h -t 1.180062736 -s 7 -d 9 -p ack -e 40 -c 2 -a 0 -i 11 -k RTR
r -t 1.181948317 -s 9 -d 9 -p ack -e 40 -c 2 -a 0 -i 10 -k AGT
+ -t 1.181948317 -s 9 -d -1 -p tcp -e 1040 -c 2 -a 0 -i 12 -k AGT 
- -t 1.181948317 -s 9 -d -1 -p tcp -e 1040 -c 2 -a 0 -i 12 -k AGT
h -t 1.181948317 -s 9 -d -1 -p tcp -e 1040 -c 2 -a 0 -i 12 -k AGT
+ -t 1.181948317 -s 9 -d -1 -p tcp -e 1040 -c 2 -a 0 -i 13 -k AGT 
- -t 1.181948317 -s 9 -d -1 -p tcp -e 1040 -c 2 -a 0 -i 13 -k AGT
h -t 1.181948317 -s 9 -d -1 -p tcp -e 1040 -c 2 -a 0 -i 13 -k AGT
+ -t 1.181948317 -s 9 -d 7 -p tcp -e 1040 -c 2 -a 0 -i 12 -k RTR 
- -t 1.181948317 -s 9 -d 7 -p tcp -e 1040 -c 2 -a 0 -i 12 -k RTR
h -t 1.181948317 -s 9 -d 7 -p tcp -e 1040 -c 2 -a 0 -i 12 -k RTR
+ -t 1.181948317 -s 9 -d 7 -p tcp -e 1040 -c 2 -a 0 -i 13 -k RTR 
- -t 1.181948317 -s 9 -d 7 -p tcp -e 1040 -c 2 -a 0 -i 13 -k RTR
h -t 1.181948317 -s 9 -d 7 -p tcp -e 1040 -c 2 -a 0 -i 13 -k RTR
+ -t 1.191873897 -s 7 -d 8 -p tcp -e 1040 -c 2 -a 0 -i 8 -k RTR 
- -t 1.191873897 -s 7 -d 8 -p tcp -e 1040 -c 2 -a 0 -i 8 -k RTR
h -t 1.191873897 -s 7 -d 8 -p tcp -e 1040 -c 2 -a 0 -i 8 -k RTR
r -t 1.193739477 -s 9 -d 9 -p ack -e 40 -c 2 -a 0 -i 11 -k AGT
+ -t 1.193739477 -s 9 -d -1 -p tcp -e 1040 -c 2 -a 0 -i 14 -k AGT 
- -t 1.193739477 -s 9 -d -1 -p tcp -e 1040 -c 2 -a 0 -i 14 -k AGT
h -t 1.193739477 -s 9 -d -1 -p tcp -e 1040 -c 2 -a 0 -i 14 -k AGT
+ -t 1.193739477 -s 9 -d -1 -p tcp -e 1040 -c 2 -a 0 -i 15 -k AGT 
- -t 1.193739477 -s 9 -d -1 -p tcp -e 1040 -c 2 -a 0 -i 15 -k AGT
h -t 1.193739477 -s 9 -d -1 -p tcp -e 1040 -c 2 -a 0 -i 15 -k AGT
+ -t 1.193739477 -s 9 -d 7 -p tcp -e 1040 -c 2 -a 0 -i 14 -k RTR 
- -t 1.193739477 -s 9 -d 7 -p tcp -e 1040 -c 2 -a 0 -i 14 -k RTR
h -t 1.193739477 -s 9 -d 7 -p tcp -e 1040 -c 2 -a 0 -i 14 -k RTR
+ -t 1.193739477 -s 9 -d 7 -p tcp -e 1040 -c 2 -a 0 -i 15 -k RTR 
- -t 1.193739477 -s 9 -d 7 -p tcp -e 1040 -c 2 -a 0 -i 15 -k RTR
h -t 1.193739477 -s 9 -d 7 -p tcp -e 1040 -c 2 -a 0 -i 15 -k RTR
+ -t 1.204006201 -s 8 -d 1 -p tcp -e 1040 -c 2 -a 0 -i 8 -k RTR 
- -t 1.204006201 -s 8 -d 1 -p tcp -e 1040 -c 2 -a 0 -i 8 -k RTR
h -t 1.204006201 -s 8 -d 1 -p tcp -e 1040 -c 2 -a 0 -i 8 -k RTR
r -t 1.214312701 -s 1 -d 1 -p tcp -e 1040 -c 2 -a 0 -i 8 -k AGT
+ -t 1.214312701 -s 1 -d -1 -p ack -e 40 -c 2 -a 0 -i 16 -k AGT 
- -t 1.214312701 -s 1 -d -1 -p ack -e 40 -c 2 -a 0 -i 16 -k AGT
h -t 1.214312701 -s 1 -d -1 -p ack -e 40 -c 2 -a 0 -i 16 -k AGT
+ -t 1.214312701 -s 1 -d 8 -p ack -e 40 -c 2 -a 0 -i 16 -k RTR 
- -t 1.214312701 -s 1 -d 8 -p ack -e 40 -c 2 -a 0 -i 16 -k RTR
h -t 1.214312701 -s 1 -d 8 -p ack -e 40 -c 2 -a 0 -i 16 -k RTR
+ -t 1.216439201 -s 8 -d 7 -p ack -e 40 -c 2 -a 0 -i 16 -k RTR 
- -t 1.216439201 -s 8 -d 7 -p ack -e 40 -c 2 -a 0 -i 16 -k RTR
h -t 1.216439201 -s 8 -d 7 -p ack -e 40 -c 2 -a 0 -i 16 -k RTR
+ -t 1.218565397 -s 7 -d 9 -p ack -e 40 -c 2 -a 0 -i 16 -k RTR 
- -t 1.218565397 -s 7 -d 9 -p ack -e 40 -c 2 -a 0 -i 16 -k RTR
h -t 1.218565397 -s 7 -d 9 -p ack -e 40 -c 2 -a 0 -i 16 -k RTR
r -t 1.220430978 -s 9 -d 9 -p ack -e 40 -c 2 -a 0 -i 16 -k AGT
+ -t 1.220430978 -s 9 -d -1 -p tcp -e 1040 -c 2 -a 0 -i 17 -k AGT 
- -t 1.220430978 -s 9 -d -1 -p tcp -e 1040 -c 2 -a 0 -i 17 -k AGT
h -t 1.220430978 -s 9 -d -1 -p tcp -e 1040 -c 2 -a 0 -i 17 -k AGT
+ -t 1.220430978 -s 9 -d -1 -p tcp -e 1040 -c 2 -a 0 -i 18 -k AGT 
- -t 1.220430978 -s 9 -d -1 -p tcp -e 1040 -c 2 -a 0 -i 18 -k AGT
h -t 1.220430978 -s 9 -d -1 -p tcp -e 1040 -c 2 -a 0 -i 18 -k AGT
+ -t 1.220430978 -s 9 -d 7 -p tcp -e 1040 -c 2 -a 0 -i 17 -k RTR 
- -t 1.220430978 -s 9 -d 7 -p tcp -e 1040 -c 2 -a 0 -i 17 -k RTR
h -t 1.220430978 -s 9 -d 7 -p tcp -e 1040 -c 2 -a 0 -i 17 -k RTR
+ -t 1.220430978 -s 9 -d 7 -p tcp -e 1040 -c 2 -a 0 -i 18 -k RTR 
- -t 1.220430978 -s 9 -d 7 -p tcp -e 1040 -c 2 -a 0 -i 18 -k RTR
h -t 1.220430978 -s 9 -d 7 -p tcp -e 1040 -c 2 -a 0 -i 18 -k RTR
+ -t 1.230296558 -s 7 -d 8 -p tcp -e 1040 -c 2 -a 0 -i 9 -k RTR 
- -t 1.230296558 -s 7 -d 8 -p tcp -e 1040 -c 2 -a 0 -i 9 -k RTR
h -t 1.230296558 -s 7 -d 8 -p tcp -e 1040 -c 2 -a 0 -i 9 -k RTR
+ -t 1.240302665 -s 7 -d 8 -p tcp -e 1040 -c 2 -a 0 -i 12 -k RTR 
- -t 1.240302665 -s 7 -d 8 -p tcp -e 1040 -c 2 -a 0 -i 12 -k RTR
h -t 1.240302665 -s 7 -d 8 -p tcp -e 1040 -c 2 -a 0 -i 12 -k RTR
+ -t 1.250148862 -s 8 -d 1 -p tcp -e 1040 -c 2 -a 0 -i 9 -k RTR 
- -t 1.250148862 -s 8 -d 1 -p tcp -e 1040 -c 2 -a 0 -i 9 -k RTR
h -t 1.250148862 -s 8 -d 1 -p tcp -e 1040 -c 2 -a 0 -i 9 -k RTR
+ -t 1.261281701 -s 7 -d 8 -p tcp -e 1040 -c 2 -a 0 -i 13 -k RTR 
- -t 1.261281701 -s 7 -d 8 -p tcp -e 1040 -c 2 -a 0 -i 13 -k RTR
h -t 1.261281701 -s 7 -d 8 -p tcp -e 1040 -c 2 -a 0 -i 13 -k RTR
+ -t 1.271267808 -s 7 -d 8 -p tcp -e 1040 -c 2 -a 0 -i 14 -k RTR 
- -t 1.271267808 -s 7 -d 8 -p tcp -e 1040 -c 2 -a 0 -i 14 -k RTR
h -t 1.271267808 -s 7 -d 8 -p tcp -e 1040 -c 2 -a 0 -i 14 -k RTR
+ -t 1.281313915 -s 7 -d 8 -p tcp -e 1040 -c 2 -a 0 -i 15 -k RTR 
- -t 1.281313915 -s 7 -d 8 -p tcp -e 1040 -c 2 -a 0 -i 15 -k RTR
h -t 1.281313915 -s 7 -d 8 -p tcp -e 1040 -c 2 -a 0 -i 15 -k RTR
+ -t 1.291140022 -s 7 -d 8 -p tcp -e 1040 -c 2 -a 0 -i 17 -k RTR 
- -t 1.291140022 -s 7 -d 8 -p tcp -e 1040 -c 2 -a 0 -i 17 -k RTR
h -t 1.291140022 -s 7 -d 8 -p tcp -e 1040 -c 2 -a 0 -i 17 -k RTR
+ -t 1.301106129 -s 7 -d 8 -p tcp -e 1040 -c 2 -a 0 -i 18 -k RTR 
- -t 1.301106129 -s 7 -d 8 -p tcp -e 1040 -c 2 -a 0 -i 18 -k RTR
h -t 1.301106129 -s 7 -d 8 -p tcp -e 1040 -c 2 -a 0 -i 18 -k RTR
r -t 1.311023232 -s 1 -d 1 -p tcp -e 1040 -c 2 -a 0 -i 9 -k AGT
+ -t 1.311023232 -s 1 -d -1 -p ack -e 40 -c 2 -a 0 -i 19 -k AGT 
- -t 1.311023232 -s 1 -d -1 -p ack -e 40 -c 2 -a 0 -i 19 -k AGT
h -t 1.311023232 -s 1 -d -1 -p ack -e 40 -c 2 -a 0 -i 19 -k AGT
+ -t 1.311023232 -s 1 -d 8 -p ack -e 40 -c 2 -a 0 -i 19 -k RTR 
- -t 1.311023232 -s 1 -d 8 -p ack -e 40 -c 2 -a 0 -i 19 -k RTR
h -t 1.311023232 -s 1 -d 8 -p ack -e 40 -c 2 -a 0 -i 19 -k RTR
+ -t 1.313169732 -s 8 -d 7 -p ack -e 40 -c 2 -a 0 -i 19 -k RTR 
- -t 1.313169732 -s 8 -d 7 -p ack -e 40 -c 2 -a 0 -i 19 -k RTR
h -t 1.313169732 -s 8 -d 7 -p ack -e 40 -c 2 -a 0 -i 19 -k RTR
+ -t 1.315115928 -s 7 -d 9 -p ack -e 40 -c 2 -a 0 -i 19 -k RTR 
- -t 1.315115928 -s 7 -d 9 -p ack -e 40 -c 2 -a 0 -i 19 -k RTR
h -t 1.315115928 -s 7 -d 9 -p ack -e 40 -c 2 -a 0 -i 19 -k RTR
+ -t 1.325322125 -s 8 -d 1 -p tcp -e 1040 -c 2 -a 0 -i 12 -k RTR 
- -t 1.325322125 -s 8 -d 1 -p tcp -e 1040 -c 2 -a 0 -i 12 -k RTR
h -t 1.325322125 -s 8 -d 1 -p tcp -e 1040 -c 2 -a 0 -i 12 -k RTR
+ -t 1.335169054 -s 8 -d 1 -p tcp -e 1040 -c 2 -a 0 -i 13 -k RTR 
- -t 1.335169054 -s 8 -d 1 -p tcp -e 1040 -c 2 -a 0 -i 13 -k RTR
h -t 1.335169054 -s 8 -d 1 -p tcp -e 1040 -c 2 -a 0 -i 13 -k RTR
r -t 1.345135554 -s 1 -d 1 -p tcp -e 1040 -c 2 -a 0 -i 12 -k AGT
+ -t 1.345135554 -s 1 -d -1 -p ack -e 40 -c 2 -a 0 -i 20 -k AGT 
- -t 1.345135554 -s 1 -d -1 -p ack -e 40 -c 2 -a 0 -i 20 -k AGT
h -t 1.345135554 -s 1 -d -1 -p ack -e 40 -c 2 -a 0 -i 20 -k AGT
+ -t 1.345135554 -s 1 -d 8 -p ack -e 40 -c 2 -a 0 -i 20 -k RTR 
- -t 1.345135554 -s 1 -d 8 -p ack -e 40 -c 2 -a 0 -i 20 -k RTR
h -t 1.345135554 -s 1 -d 8 -p ack -e 40 -c 2 -a 0 -i 20 -k RTR
r -t 1.355062887 -s 1 -d 1 -p tcp -e 1040 -c 2 -a 0 -i 13 -k AGT
+ -t 1.355062887 -s 1 -d -1 -p ack -e 40 -c 2 -a 0 -i 21 -k AGT 
- -t 1.355062887 -s 1 -d -1 -p ack -e 40 -c 2 -a 0 -i 21 -k AGT
h -t 1.355062887 -s 1 -d -1 -p ack -e 40 -c 2 -a 0 -i 21 -k AGT
+ -t 1.355062887 -s 1 -d 8 -p ack -e 40 -c 2 -a 0 -i 21 -k RTR 
- -t 1.355062887 -s 1 -d 8 -p ack -e 40 -c 2 -a 0 -i 21 -k RTR
h -t 1.355062887 -s 1 -d 8 -p ack -e 40 -c 2 -a 0 -i 21 -k RTR
+ -t 1.357109387 -s 8 -d 7 -p ack -e 40 -c 2 -a 0 -i 20 -k RTR 
- -t 1.357109387 -s 8 -d 7 -p ack -e 40 -c 2 -a 0 -i 20 -k RTR
h -t 1.357109387 -s 8 -d 7 -p ack -e 40 -c 2 -a 0 -i 20 -k RTR
+ -t 1.358995584 -s 7 -d 9 -p ack -e 40 -c 2 -a 0 -i 20 -k RTR 
- -t 1.358995584 -s 7 -d 9 -p ack -e 40 -c 2 -a 0 -i 20 -k RTR
h -t 1.358995584 -s 7 -d 9 -p ack -e 40 -c 2 -a 0 -i 20 -k RTR
+ -t 1.368961780 -s 8 -d 1 -p tcp -e 1040 -c 2 -a 0 -i 14 -k RTR 
- -t 1.368961780 -s 8 -d 1 -p tcp -e 1040 -c 2 -a 0 -i 14 -k RTR
h -t 1.368961780 -s 8 -d 1 -p tcp -e 1040 -c 2 -a 0 -i 14 -k RTR
+ -t 1.379208709 -s 8 -d 1 -p tcp -e 1040 -c 2 -a 0 -i 15 -k RTR 
- -t 1.379208709 -s 8 -d 1 -p tcp -e 1040 -c 2 -a 0 -i 15 -k RTR
h -t 1.379208709 -s 8 -d 1 -p tcp -e 1040 -c 2 -a 0 -i 15 -k RTR
+ -t 1.389055638 -s 8 -d 1 -p tcp -e 1040 -c 2 -a 0 -i 17 -k RTR 
- -t 1.389055638 -s 8 -d 1 -p tcp -e 1040 -c 2 -a 0 -i 17 -k RTR
h -t 1.389055638 -s 8 -d 1 -p tcp -e 1040 -c 2 -a 0 -i 17 -k RTR
+ -t 1.398902567 -s 8 -d 1 -p tcp -e 1040 -c 2 -a 0 -i 18 -k RTR 
- -t 1.398902567 -s 8 -d 1 -p tcp -e 1040 -c 2 -a 0 -i 18 -k RTR
h -t 1.398902567 -s 8 -d 1 -p tcp -e 1040 -c 2 -a 0 -i 18 -k RTR
r -t 1.408749067 -s 1 -d 1 -p tcp -e 1040 -c 2 -a 0 -i 14 -k AGT
+ -t 1.408749067 -s 1 -d -1 -p ack -e 40 -c 2 -a 0 -i 22 -k AGT 
- -t 1.408749067 -s 1 -d -1 -p ack -e 40 -c 2 -a 0 -i 22 -k AGT
h -t 1.408749067 -s 1 -d -1 -p ack -e 40 -c 2 -a 0 -i 22 -k AGT
+ -t 1.408749067 -s 1 -d 8 -p ack -e 40 -c 2 -a 0 -i 22 -k RTR 
- -t 1.408749067 -s 1 -d 8 -p ack -e 40 -c 2 -a 0 -i 22 -k RTR
h -t 1.408749067 -s 1 -d 8 -p ack -e 40 -c 2 -a 0 -i 22 -k RTR
+ -t 1.410695567 -s 8 -d 7 -p ack -e 40 -c 2 -a 0 -i 21 -k RTR 
- -t 1.410695567 -s 8 -d 7 -p ack -e 40 -c 2 -a 0 -i 21 -k RTR
h -t 1.410695567 -s 8 -d 7 -p ack -e 40 -c 2 -a 0 -i 21 -k RTR
+ -t 1.412542900 -s 8 -d 7 -p ack -e 40 -c 2 -a 0 -i 22 -k RTR 
- -t 1.412542900 -s 8 -d 7 -p ack -e 40 -c 2 -a 0 -i 22 -k RTR
h -t 1.412542900 -s 8 -d 7 -p ack -e 40 -c 2 -a 0 -i 22 -k RTR
r -t 1.414479180 -s 9 -d 9 -p ack -e 40 -c 2 -a 0 -i 19 -k AGT
+ -t 1.414479180 -s 9 -d -1 -p tcp -e 1040 -c 2 -a 0 -i 23 -k AGT 
- -t 1.414479180 -s 9 -d -1 -p tcp -e 1040 -c 2 -a 0 -i 23 -k AGT
h -t 1.414479180 -s 9 -d -1 -p tcp -e 1040 -c 2 -a 0 -i 23 -k AGT
+ -t 1.414479180 -s 9 -d -1 -p tcp -e 1040 -c 2 -a 0 -i 24 -k AGT 
- -t 1.414479180 -s 9 -d -1 -p tcp -e 1040 -c 2 -a 0 -i 24 -k AGT
h -t 1.414479180 -s 9 -d -1 -p tcp -e 1040 -c 2 -a 0 -i 24 -k AGT
+ -t 1.414479180 -s 9 -d 7 -p tcp -e 1040 -c 2 -a 0 -i 23 -k RTR 
- -t 1.414479180 -s 9 -d 7 -p tcp -e 1040 -c 2 -a 0 -i 23 -k RTR
h -t 1.414479180 -s 9 -d 7 -p tcp -e 1040 -c 2 -a 0 -i 23 -k RTR
+ -t 1.414479180 -s 9 -d 7 -p tcp -e 1040 -c 2 -a 0 -i 24 -k RTR 
- -t 1.414479180 -s 9 -d 7 -p tcp -e 1040 -c 2 -a 0 -i 24 -k RTR
h -t 1.414479180 -s 9 -d 7 -p tcp -e 1040 -c 2 -a 0 -i 24 -k RTR
+ -t 1.424684760 -s 7 -d 8 -p tcp -e 1040 -c 2 -a 0 -i 23 -k RTR 
- -t 1.424684760 -s 7 -d 8 -p tcp -e 1040 -c 2 -a 0 -i 23 -k RTR
h -t 1.424684760 -s 7 -d 8 -p tcp -e 1040 -c 2 -a 0 -i 23 -k RTR
r -t 1.426590340 -s 9 -d 9 -p ack -e 40 -c 2 -a 0 -i 20 -k AGT
+ -t 1.426590340 -s 9 -d -1 -p tcp -e 1040 -c 2 -a 0 -i 25 -k AGT 
- -t 1.426590340 -s 9 -d -1 -p tcp -e 1040 -c 2 -a 0 -i 25 -k AGT
h -t 1.426590340 -s 9 -d -1 -p tcp -e 1040 -c 2 -a 0 -i 25 -k AGT
+ -t 1.426590340 -s 9 -d -1 -p tcp -e 1040 -c 2 -a 0 -i 26 -k AGT 
- -t 1.426590340 -s 9 -d -1 -p tcp -e 1040 -c 2 -a 0 -i 26 -k AGT
h -t 1.426590340 -s 9 -d -1 -p tcp -e 1040 -c 2 -a 0 -i 26 -k AGT
+ -t 1.426590340 -s 9 -d 7 -p tcp -e 1040 -c 2 -a 0 -i 25 -k RTR 
- -t 1.426590340 -s 9 -d 7 -p tcp -e 1040 -c 2 -a 0 -i 25 -k RTR
h -t 1.426590340 -s 9 -d 7 -p tcp -e 1040 -c 2 -a 0 -i 25 -k RTR
+ -t 1.426590340 -s 9 -d 7 -p tcp -e 1040 -c 2 -a 0 -i 26 -k RTR 
- -t 1.426590340 -s 9 -d 7 -p tcp -e 1040 -c 2 -a 0 -i 26 -k RTR
h -t 1.426590340 -s 9 -d 7 -p tcp -e 1040 -c 2 -a 0 -i 26 -k RTR
+ -t 1.436735921 -s 7 -d 8 -p tcp -e 1040 -c 2 -a 0 -i 24 -k RTR 
- -t 1.436735921 -s 7 -d 8 -p tcp -e 1040 -c 2 -a 0 -i 24 -k RTR
h -t 1.436735921 -s 7 -d 8 -p tcp -e 1040 -c 2 -a 0 -i 24 -k RTR
r -t 1.446633023 -s 1 -d 1 -p tcp -e 1040 -c 2 -a 0 -i 15 -k AGT
+ -t 1.446633023 -s 1 -d -1 -p ack -e 40 -c 2 -a 0 -i 27 -k AGT 
- -t 1.446633023 -s 1 -d -1 -p ack -e 40 -c 2 -a 0 -i 27 -k AGT
h -t 1.446633023 -s 1 -d -1 -p ack -e 40 -c 2 -a 0 -i 27 -k AGT
+ -t 1.446633023 -s 1 -d 8 -p ack -e 40 -c 2 -a 0 -i 27 -k RTR 
- -t 1.446633023 -s 1 -d 8 -p ack -e 40 -c 2 -a 0 -i 27 -k RTR
h -t 1.446633023 -s 1 -d 8 -p ack -e 40 -c 2 -a 0 -i 27 -k RTR
+ -t 1.448639523 -s 8 -d 7 -p ack -e 40 -c 2 -a 0 -i 27 -k RTR 
- -t 1.448639523 -s 8 -d 7 -p ack -e 40 -c 2 -a 0 -i 27 -k RTR
h -t 1.448639523 -s 8 -d 7 -p ack -e 40 -c 2 -a 0 -i 27 -k RTR
+ -t 1.458636419 -s 8 -d 1 -p tcp -e 1040 -c 2 -a 0 -i 23 -k RTR 
- -t 1.458636419 -s 8 -d 1 -p tcp -e 1040 -c 2 -a 0 -i 23 -k RTR
h -t 1.458636419 -s 8 -d 1 -p tcp -e 1040 -c 2 -a 0 -i 23 -k RTR
+ -t 1.468603348 -s 8 -d 1 -p tcp -e 1040 -c 2 -a 0 -i 24 -k RTR 
- -t 1.468603348 -s 8 -d 1 -p tcp -e 1040 -c 2 -a 0 -i 24 -k RTR
h -t 1.468603348 -s 8 -d 1 -p tcp -e 1040 -c 2 -a 0 -i 24 -k RTR
r -t 1.478509848 -s 1 -d 1 -p tcp -e 1040 -c 2 -a 0 -i 17 -k AGT
+ -t 1.478509848 -s 1 -d -1 -p ack -e 40 -c 2 -a 0 -i 28 -k AGT 
- -t 1.478509848 -s 1 -d -1 -p ack -e 40 -c 2 -a 0 -i 28 -k AGT
h -t 1.478509848 -s 1 -d -1 -p ack -e 40 -c 2 -a 0 -i 28 -k AGT
+ -t 1.478509848 -s 1 -d 8 -p ack -e 40 -c 2 -a 0 -i 28 -k RTR 
- -t 1.478509848 -s 1 -d 8 -p ack -e 40 -c 2 -a 0 -i 28 -k RTR
h -t 1.478509848 -s 1 -d 8 -p ack -e 40 -c 2 -a 0 -i 28 -k RTR
+ -t 1.480336348 -s 8 -d 7 -p ack -e 40 -c 2 -a 0 -i 28 -k RTR 
- -t 1.480336348 -s 8 -d 7 -p ack -e 40 -c 2 -a 0 -i 28 -k RTR
h -t 1.480336348 -s 8 -d 7 -p ack -e 40 -c 2 -a 0 -i 28 -k RTR
r -t 1.490262848 -s 1 -d 1 -p tcp -e 1040 -c 2 -a 0 -i 18 -k AGT
+ -t 1.490262848 -s 1 -d -1 -p ack -e 40 -c 2 -a 0 -i 29 -k AGT 
- -t 1.490262848 -s 1 -d -1 -p ack -e 40 -c 2 -a 0 -i 29 -k AGT
h -t 1.490262848 -s 1 -d -1 -p ack -e 40 -c 2 -a 0 -i 29 -k AGT
+ -t 1.490262848 -s 1 -d 8 -p ack -e 40 -c 2 -a 0 -i 29 -k RTR 
- -t 1.490262848 -s 1 -d 8 -p ack -e 40 -c 2 -a 0 -i 29 -k RTR
h -t 1.490262848 -s 1 -d 8 -p ack -e 40 -c 2 -a 0 -i 29 -k RTR
+ -t 1.492629348 -s 8 -d 7 -p ack -e 40 -c 2 -a 0 -i 29 -k RTR 
- -t 1.492629348 -s 8 -d 7 -p ack -e 40 -c 2 -a 0 -i 29 -k RTR
h -t 1.492629348 -s 8 -d 7 -p ack -e 40 -c 2 -a 0 -i 29 -k RTR
+ -t 1.494495545 -s 7 -d 9 -p ack -e 40 -c 2 -a 0 -i 21 -k RTR 
- -t 1.494495545 -s 7 -d 9 -p ack -e 40 -c 2 -a 0 -i 21 -k RTR
h -t 1.494495545 -s 7 -d 9 -p ack -e 40 -c 2 -a 0 -i 21 -k RTR
+ -t 1.504471522 -s 7 -d 8 -p tcp -e 1040 -c 2 -a 0 -i 25 -k RTR 
- -t 1.504471522 -s 7 -d 8 -p tcp -e 1040 -c 2 -a 0 -i 25 -k RTR
h -t 1.504471522 -s 7 -d 8 -p tcp -e 1040 -c 2 -a 0 -i 25 -k RTR
+ -t 1.506428321 -s 7 -d 9 -p ack -e 40 -c 2 -a 0 -i 22 -k RTR 
- -t 1.506428321 -s 7 -d 9 -p ack -e 40 -c 2 -a 0 -i 22 -k RTR
h -t 1.506428321 -s 7 -d 9 -p ack -e 40 -c 2 -a 0 -i 22 -k RTR
+ -t 1.508395250 -s 7 -d 9 -p ack -e 40 -c 2 -a 0 -i 27 -k RTR 
- -t 1.508395250 -s 7 -d 9 -p ack -e 40 -c 2 -a 0 -i 27 -k RTR
h -t 1.508395250 -s 7 -d 9 -p ack -e 40 -c 2 -a 0 -i 27 -k RTR
r -t 1.510400830 -s 9 -d 9 -p ack -e 40 -c 2 -a 0 -i 21 -k AGT
+ -t 1.510400830 -s 9 -d -1 -p tcp -e 1040 -c 2 -a 0 -i 30 -k AGT 
- -t 1.510400830 -s 9 -d -1 -p tcp -e 1040 -c 2 -a 0 -i 30 -k AGT
h -t 1.510400830 -s 9 -d -1 -p tcp -e 1040 -c 2 -a 0 -i 30 -k AGT
+ -t 1.510400830 -s 9 -d -1 -p tcp -e 1040 -c 2 -a 0 -i 31 -k AGT 
- -t 1.510400830 -s 9 -d -1 -p tcp -e 1040 -c 2 -a 0 -i 31 -k AGT
h -t 1.510400830 -s 9 -d -1 -p tcp -e 1040 -c 2 -a 0 -i 31 -k AGT
+ -t 1.510400830 -s 9 -d 7 -p tcp -e 1040 -c 2 -a 0 -i 30 -k RTR 
- -t 1.510400830 -s 9 -d 7 -p tcp -e 1040 -c 2 -a 0 -i 30 -k RTR
h -t 1.510400830 -s 9 -d 7 -p tcp -e 1040 -c 2 -a 0 -i 30 -k RTR
+ -t 1.510400830 -s 9 -d 7 -p tcp -e 1040 -c 2 -a 0 -i 31 -k RTR 
- -t 1.510400830 -s 9 -d 7 -p tcp -e 1040 -c 2 -a 0 -i 31 -k RTR